********************************************************************************
*                       GENERAL UTILITY LATTICE PROGRAM                        *
*                                 Julian Gale                                  *
*                       Curtin Institute for Computation                       *
*                    School of Molecular and Life Sciences                     *
*                    Curtin University, Western Australia                      *
********************************************************************************
* Version = 6.2.0 * Last modified =  30th August 2023                          *
********************************************************************************
*  optimise     - perform optimisation run                                     *
*  conp         - constant pressure calculation                                *
*  property     - calculate properties for final geometry                      *
********************************************************************************

  Job Started  at 18:29.04 30th August     2023                               

  Number of CPUs =     1


  Total number of configurations input =      2

********************************************************************************
*  Input for Configuration =   1 : fluorite                                    *
********************************************************************************

  Formula = CeO2                                                        

  Number of irreducible atoms/shells =       2


  Total number atoms/shells =       3

  Dimensionality = 3               :  Bulk   


  Symmetry :

  Crystal family                   :  Cubic       
  Crystal class  (Groth - 1921)    :  Cubic Hexakisoctahedral              

  Space group (centrosymmetric)    :  F M 3 M         

  Patterson group                  :  F m -3 m 

  Cartesian lattice vectors (Angstroms) :

        0.000000    2.731550    2.731550
        2.731550    0.000000    2.731550
        2.731550    2.731550    0.000000

  Primitive cell parameters :            Full cell parameters :

  a =   3.8630    alpha =  60.0000       a =   5.4631    alpha =  90.0000
  b =   3.8630    beta  =  60.0000       b =   5.4631    beta  =  90.0000
  c =   3.8630    gamma =  60.0000       c =   5.4631    gamma =  90.0000

  Initial volumes (Angstroms**3):

  Primitive cell =          40.762185    Full cell =         163.048741

  Temperature of configuration =   0.00     K 

  Pressure of configuration =         0.000 GPa 

  Fractional coordinates of asymmetric unit :

--------------------------------------------------------------------------------
   No.  Atomic       x           y          z         Charge      Occupancy
        Label      (Frac)      (Frac)     (Frac)        (e)         (Frac)  
--------------------------------------------------------------------------------
      1 Ce    c    0.000000    0.000000    0.000000     0.00000    1.000000    
      2 O     c    0.250000    0.250000    0.250000     0.00000    1.000000    
--------------------------------------------------------------------------------


  Constraints : 

--------------------------------------------------------------------------------
  Constraint no.      Unconstrained     Constrained    Coefficient    Offset
                         Variable         Variable
--------------------------------------------------------------------------------
           1              Strain 1        Strain 2       1.00000      0.0000
           2              Strain 1        Strain 3       1.00000      0.0000
--------------------------------------------------------------------------------


********************************************************************************
*  Input for Configuration =   2 : rutile                                      *
********************************************************************************

  Formula = Ce2O4                                                       

  Number of irreducible atoms/shells =       2


  Total number atoms/shells =       6

  Dimensionality = 3               :  Bulk   


  Symmetry :

  Crystal family                   :  Tetragonal  
  Crystal class  (Groth - 1921)    :  Ditetragonal Dipyramidal             

  Space group (centrosymmetric)    :  P 42/M N M      

  Patterson group                  :  P 4/m m m

  Cartesian lattice vectors (Angstroms) :

        4.593700    0.000000    0.000000
        0.000000    4.593700    0.000000
        0.000000    0.000000    2.958700

  Cell parameters (Angstroms/Degrees):

  a =       4.5937    alpha =  90.0000
  b =       4.5937    beta  =  90.0000
  c =       2.9587    gamma =  90.0000

  Initial cell volume =          62.434723 Angs**3

  Temperature of configuration =   0.00     K 

  Pressure of configuration =         0.000 GPa 

  Fractional coordinates of asymmetric unit :

--------------------------------------------------------------------------------
   No.  Atomic       x           y          z         Charge      Occupancy
        Label      (Frac)      (Frac)     (Frac)        (e)         (Frac)  
--------------------------------------------------------------------------------
      1 Ce    c    0.000000    0.000000    0.000000     0.00000    1.000000    
      2 O     c    0.304790 *  0.304790    0.000000     0.00000    1.000000    
--------------------------------------------------------------------------------


  Constraints : 

--------------------------------------------------------------------------------
  Constraint no.      Unconstrained     Constrained    Coefficient    Offset
                         Variable         Variable
--------------------------------------------------------------------------------
           1              Strain 1        Strain 2       1.00000      0.0000
           2                 2 x             2 y         1.00000      0.0000
--------------------------------------------------------------------------------


********************************************************************************
*  General input information                                                   *
********************************************************************************

  Species output for all configurations : 

--------------------------------------------------------------------------------
  Species    Type    Atomic    Atomic    Charge       Radii (Angs)     Library
                     Number     Mass       (e)     Cova   Ionic  VDW   Symbol
--------------------------------------------------------------------------------
    Ce       Core       58     140.12   0.000000   1.830  0.000  2.730          
    O        Core        8      16.00   0.000000   0.730  0.000  1.360          
--------------------------------------------------------------------------------


  Lattice summation method               =    Ewald          (3-D)
                                         =    Parry          (2-D)
                                         =    Saunders et al (1-D)
  Accuracy factor for lattice sums       =   12.000


  Analytic derivatives to be used

  Time limit = Infinity

  Maximum range for interatomic potentials =    100000.000000 Angstroms

  ReaxFF forcefield to be used

  ReaxFF Coulomb cutoff =  10.0000 Ang
  ReaxFF VDW     cutoff =  10.0000 Ang
  ReaxFF H-bond  cutoff =   7.5000 Ang

  ReaxFF pairwise bond order       threshold = 0.00100000000000
  ReaxFF angle/torsion bond order  threshold = 0.00500000000000
  ReaxFF bond order double product threshold = 0.00000100000000
  ReaxFF bond order triple product threshold = 0.00000000100000
  ReaxFF hydrogen-bond bond order  threshold = 0.01000000000000


********************************************************************************
*  Output for configuration   1 : fluorite                                     *
********************************************************************************


  Components of energy : 

--------------------------------------------------------------------------------
  Interatomic potentials     =           0.00000000 eV    
  ReaxFF force field         =         -22.38119221 eV    
  Monopole - monopole (real) =           0.00000000 eV    
  Monopole - monopole (recip)=           0.00000000 eV    
  Monopole - monopole (total)=           0.00000000 eV    
--------------------------------------------------------------------------------
  Total lattice energy : 
    Primitive unit cell      =         -22.38119221 eV    
    Non-primitive unit cell  =         -89.52476886 eV    
--------------------------------------------------------------------------------
  Total lattice energy (in kJmol-1): 
    Primitive unit cell      =           -2159.4429 kJ/(mole unit cells)
    Non-primitive unit cell  =           -8637.7717 kJ/(mole unit cells)
--------------------------------------------------------------------------------


  Number of variables =        1

  Maximum number of calculations  =          1000
  Maximum Hessian update interval =            10
  Maximum step size               =   1.000000000
  Maximum parameter tolerance     =   0.000010000
  Maximum function  tolerance     =   0.000010000
  Maximum gradient  tolerance     =   0.001000000
  Maximum gradient  component     =   0.010000000

  Symmetry constrained optimisation

  Cell parameters to be optimised using strains

  Newton-Raphson optimiser to be used

  BFGS hessian update to be used

  Lower half triangular hessian to be used

  Start of bulk optimisation :

  Cycle:      0 Energy:       -22.381192  Gnorm:      1.688469  CPU:    0.033
  ** Hessian calculated **
  Cycle:      1 Energy:       -22.384385  Gnorm:      0.007938  CPU:    0.035


  **** Optimisation achieved ****


  Final energy =     -22.38438541 eV      
  Final Gnorm  =       0.00000084

  Components of energy : 

--------------------------------------------------------------------------------
  Interatomic potentials     =           0.00000000 eV    
  ReaxFF force field         =         -22.38438541 eV    
  Monopole - monopole (real) =           0.00000000 eV    
  Monopole - monopole (recip)=           0.00000000 eV    
  Monopole - monopole (total)=           0.00000000 eV    
--------------------------------------------------------------------------------
  Total lattice energy : 
    Primitive unit cell      =         -22.38438541 eV    
    Non-primitive unit cell  =         -89.53754164 eV    
--------------------------------------------------------------------------------
  Total lattice energy (in kJmol-1): 
    Primitive unit cell      =           -2159.7510 kJ/(mole unit cells)
    Non-primitive unit cell  =           -8639.0041 kJ/(mole unit cells)
--------------------------------------------------------------------------------

  Final asymmetric unit coordinates :

--------------------------------------------------------------------------------
   No.  Atomic        x           y           z         Radius
        Label       (Frac)      (Frac)      (Frac)       (Angs) 
--------------------------------------------------------------------------------
     1  Ce    c     0.000000    0.000000    0.000000    0.000000
     2  O     c     0.250000    0.250000    0.250000    0.000000
--------------------------------------------------------------------------------

  Final Cartesian lattice vectors (Angstroms) :

        0.000000    2.741993    2.741993
        2.741993    0.000000    2.741993
        2.741993    2.741993    0.000000


  Final cell parameters and derivatives :

--------------------------------------------------------------------------------
       a            3.877764 Angstrom     dE/de1(xx)    -0.000001 eV/strain
       b            3.877764 Angstrom     dE/de2(yy)     0.000000 eV/strain
       c            3.877764 Angstrom     dE/de3(zz)     0.000000 eV/strain
       alpha       60.000000 Degrees      dE/de4(yz)     0.000000 eV/strain
       beta        60.000000 Degrees      dE/de5(xz)     0.000000 eV/strain
       gamma       60.000000 Degrees      dE/de6(xy)     0.000000 eV/strain
--------------------------------------------------------------------------------

  Primitive cell volume =            41.231504 Angs**3

  Density of cell =      6.931994 g/cm**3

  Non-primitive lattice parameters :

  a    =     5.483987  b   =     5.483987  c    =     5.483987
  alpha=    90.000000  beta=    90.000000  gamma=    90.000000

  Non-primitive cell volume =           164.926016 Angs**3


  Final internal derivatives :

--------------------------------------------------------------------------------
   No.  Atomic          a             b             c           Radius
        Label          (eV)          (eV)          (eV)        (eV/Angs)
--------------------------------------------------------------------------------
      1 Ce    c       0.000000      0.000000      0.000000      0.000000
      2 O     c       0.000000      0.000000      0.000000      0.000000
--------------------------------------------------------------------------------
  Maximum abs         0.000000      0.000000      0.000000      0.000000
--------------------------------------------------------------------------------


  Born effective charge tensors : 

-------------------------------------------------------------------------------
  Atom             x           y             z
-------------------------------------------------------------------------------
    1 Ce    x       1.3893     -0.0000      0.0000
            y       0.0000      1.3893      0.0000
            z       0.0000     -0.0000      1.3893
-------------------------------------------------------------------------------
    2 O     x      -0.6946      0.0000      0.0000
            y       0.0000     -0.6946      0.0000
            z       0.0000      0.0000     -0.6946
-------------------------------------------------------------------------------




  Elastic Constant Matrix: (Units=GPa)

-------------------------------------------------------------------------------
  Indices      1         2         3         4         5         6    
-------------------------------------------------------------------------------
       1    405.5029  106.9953  106.9953    0.0000   -0.0000   -0.0000
       2    106.9953  405.5029  106.9953   -0.0000   -0.0000   -0.0000
       3    106.9953  106.9953  405.5029   -0.0000   -0.0000   -0.0000
       4      0.0000   -0.0000   -0.0000   83.3442    0.0000    0.0000
       5     -0.0000   -0.0000   -0.0000    0.0000   83.3442    0.0000
       6     -0.0000   -0.0000   -0.0000    0.0000    0.0000   83.3442
-------------------------------------------------------------------------------


  Elastic Compliance Matrix: (Units=1/GPa)

-------------------------------------------------------------------------------
  Indices      1         2         3         4         5         6    
-------------------------------------------------------------------------------
       1    0.002771 -0.000579 -0.000579 -0.000000  0.000000  0.000000
       2   -0.000579  0.002771 -0.000579  0.000000 -0.000000  0.000000
       3   -0.000579 -0.000579  0.002771  0.000000  0.000000 -0.000000
       4   -0.000000  0.000000  0.000000  0.011998 -0.000000 -0.000000
       5    0.000000 -0.000000  0.000000 -0.000000  0.011998 -0.000000
       6    0.000000  0.000000 -0.000000 -0.000000 -0.000000  0.011998
-------------------------------------------------------------------------------

  Mechanical properties :

-------------------------------------------------------------------------------
  Convention :                    Reuss         Voigt         Hill
-------------------------------------------------------------------------------
  Bulk  Modulus (GPa)     =     206.49785     206.49785     206.49785
  Shear Modulus (GPa)     =     101.22420     109.70804     105.46612
-------------------------------------------------------------------------------
  Velocity S-wave (km/s)  =       3.82132       3.97823       3.90056
  Velocity P-wave (km/s)  =       7.01848       7.13378       7.07637
-------------------------------------------------------------------------------
  Compressibility (1/GPa) =    0.00484267
-------------------------------------------------------------------------------
  Stress axis :                     x             y             z
-------------------------------------------------------------------------------
  Youngs Moduli (GPa)     =     360.82765     360.82765     360.82765
-------------------------------------------------------------------------------
  Poissons Ratio (x)      =                     0.20877       0.20877
  Poissons Ratio (y)      =       0.20877                     0.20877
  Poissons Ratio (z)      =       0.20877       0.20877
-------------------------------------------------------------------------------



  Time to end of optimisation =       0.0625 seconds



  Final charges from ReaxFF :

--------------------------------------------------------------------------------
    Atom no.            Atomic No.             Charge
--------------------------------------------------------------------------------
         1                  58                 1.3892690
         2                   8                -0.6946345
         3                   8                -0.6946345
--------------------------------------------------------------------------------


********************************************************************************
*  Output for configuration   2 : rutile                                       *
********************************************************************************


  Components of energy : 

--------------------------------------------------------------------------------
  Interatomic potentials     =           0.00000000 eV    
  ReaxFF force field         =         -31.55272265 eV    
  Monopole - monopole (real) =           0.00000000 eV    
  Monopole - monopole (recip)=           0.00000000 eV    
  Monopole - monopole (total)=           0.00000000 eV    
--------------------------------------------------------------------------------
  Total lattice energy       =         -31.55272265 eV    
--------------------------------------------------------------------------------
  Total lattice energy       =           -3044.3554 kJ/(mole unit cells)
--------------------------------------------------------------------------------


  Number of variables =        3

  Maximum number of calculations  =          1000
  Maximum Hessian update interval =            10
  Maximum step size               =   1.000000000
  Maximum parameter tolerance     =   0.000010000
  Maximum function  tolerance     =   0.000010000
  Maximum gradient  tolerance     =   0.001000000
  Maximum gradient  component     =   0.010000000

  Symmetry constrained optimisation

  Cell parameters to be optimised using strains

  Newton-Raphson optimiser to be used

  BFGS hessian update to be used

  Lower half triangular hessian to be used

  Start of bulk optimisation :

  Cycle:      0 Energy:       -31.552723  Gnorm:     30.815342  CPU:    0.152
  ** Hessian calculated **
  Cycle:      1 Energy:       -37.129723  Gnorm:     37.982448  CPU:    0.154
  Cycle:      2 Energy:       -39.894053  Gnorm:     18.358236  CPU:    0.156
  Cycle:      3 Energy:       -42.254699  Gnorm:     10.000122  CPU:    0.158
  Cycle:      4 Energy:       -42.674125  Gnorm:      2.939889  CPU:    0.160
  Cycle:      5 Energy:       -42.736296  Gnorm:      3.212104  CPU:    0.161
  Cycle:      6 Energy:       -42.757911  Gnorm:      0.729333  CPU:    0.163
  Cycle:      7 Energy:       -42.762259  Gnorm:      0.125962  CPU:    0.165
  Cycle:      8 Energy:       -42.762310  Gnorm:      0.052929  CPU:    0.166


  **** Optimisation achieved ****


  Final energy =     -42.76231595 eV      
  Final Gnorm  =       0.00059249

  Components of energy : 

--------------------------------------------------------------------------------
  Interatomic potentials     =           0.00000000 eV    
  ReaxFF force field         =         -42.76231595 eV    
  Monopole - monopole (real) =           0.00000000 eV    
  Monopole - monopole (recip)=           0.00000000 eV    
  Monopole - monopole (total)=           0.00000000 eV    
--------------------------------------------------------------------------------
  Total lattice energy       =         -42.76231595 eV    
--------------------------------------------------------------------------------
  Total lattice energy       =           -4125.9098 kJ/(mole unit cells)
--------------------------------------------------------------------------------

  Final asymmetric unit coordinates :

--------------------------------------------------------------------------------
   No.  Atomic        x           y           z         Radius
        Label       (Frac)      (Frac)      (Frac)       (Angs) 
--------------------------------------------------------------------------------
     1  Ce    c     0.000000    0.000000    0.000000    0.000000
     2  O     c     0.291891    0.291891    0.000000    0.000000
--------------------------------------------------------------------------------

  Final Cartesian lattice vectors (Angstroms) :

        4.882837    0.000000    0.000000
        0.000000    4.882837    0.000000
        0.000000    0.000000    3.773213


  Final cell parameters and derivatives :

--------------------------------------------------------------------------------
       a            4.882837 Angstrom     dE/de1(xx)    -0.001614 eV/strain
       b            4.882837 Angstrom     dE/de2(yy)     0.000000 eV/strain
       c            3.773213 Angstrom     dE/de3(zz)     0.000739 eV/strain
       alpha       90.000000 Degrees      dE/de4(yz)     0.000000 eV/strain
       beta        90.000000 Degrees      dE/de5(xz)     0.000000 eV/strain
       gamma       90.000000 Degrees      dE/de6(xy)     0.000000 eV/strain
--------------------------------------------------------------------------------

  Primitive cell volume =            89.961300 Angs**3

  Density of cell =      6.354211 g/cm**3

  Non-primitive cell volume =            89.961300 Angs**3


  Final internal derivatives :

--------------------------------------------------------------------------------
   No.  Atomic          a             b             c           Radius
        Label          (eV)          (eV)          (eV)        (eV/Angs)
--------------------------------------------------------------------------------
      1 Ce    c       0.000000      0.000000      0.000000      0.000000
      2 O     c       0.000094      0.000000      0.000000      0.000000
--------------------------------------------------------------------------------
  Maximum abs         0.000094      0.000000      0.000000      0.000000
--------------------------------------------------------------------------------


  Born effective charge tensors : 

-------------------------------------------------------------------------------
  Atom             x           y             z
-------------------------------------------------------------------------------
    1 Ce    x       2.4631     -0.0319     -0.0000
            y      -0.0319      2.4631     -0.0000
            z      -0.0000      0.0000      1.4415
-------------------------------------------------------------------------------
    2 O     x      -0.2749      0.3796      0.0000
            y       0.3796     -0.2749      0.0000
            z       0.1373      0.1373     -0.7208
-------------------------------------------------------------------------------




  Elastic Constant Matrix: (Units=GPa)

-------------------------------------------------------------------------------
  Indices      1         2         3         4         5         6    
-------------------------------------------------------------------------------
       1    249.5284  225.5484  113.6408    0.0000    0.0000   -0.0000
       2    225.5484  249.5284  113.6408    0.0000   -0.0000   -0.0000
       3    113.6408  113.6408  363.4120   -0.0000   -0.0000   -0.0000
       4      0.0000    0.0000   -0.0000   31.5357   -0.0000    0.0000
       5      0.0000   -0.0000   -0.0000   -0.0000   31.5357   -0.0000
       6     -0.0000   -0.0000   -0.0000    0.0000   -0.0000  213.1042
-------------------------------------------------------------------------------


  Elastic Compliance Matrix: (Units=1/GPa)

-------------------------------------------------------------------------------
  Indices      1         2         3         4         5         6    
-------------------------------------------------------------------------------
       1    0.022088 -0.019613 -0.000774  0.000000 -0.000000  0.000000
       2   -0.019613  0.022088 -0.000774 -0.000000  0.000000 -0.000000
       3   -0.000774 -0.000774  0.003236  0.000000  0.000000  0.000000
       4    0.000000 -0.000000  0.000000  0.031710  0.000000 -0.000000
       5   -0.000000  0.000000  0.000000  0.000000  0.031710  0.000000
       6    0.000000 -0.000000  0.000000 -0.000000  0.000000  0.004693
-------------------------------------------------------------------------------

  Mechanical properties :

-------------------------------------------------------------------------------
  Convention :                    Reuss         Voigt         Hill
-------------------------------------------------------------------------------
  Bulk  Modulus (GPa)     =     196.45760     196.45876     196.45818
  Shear Modulus (GPa)     =      31.33933      82.54437      56.94185
-------------------------------------------------------------------------------
  Velocity S-wave (km/s)  =       2.22082       3.60423       2.99354
  Velocity P-wave (km/s)  =       6.12322       6.94540       6.54723
-------------------------------------------------------------------------------
  Compressibility (1/GPa) =    0.00509016
-------------------------------------------------------------------------------
  Stress axis :                     x             y             z
-------------------------------------------------------------------------------
  Youngs Moduli (GPa)     =      45.27289      45.27289     309.04504
-------------------------------------------------------------------------------
  Poissons Ratio (x)      =                     0.88794       0.23921
  Poissons Ratio (y)      =       0.88794                     0.23921
  Poissons Ratio (z)      =       0.03504       0.03504
-------------------------------------------------------------------------------



  Time to end of optimisation =       0.2424 seconds



  Final charges from ReaxFF :

--------------------------------------------------------------------------------
    Atom no.            Atomic No.             Charge
--------------------------------------------------------------------------------
         1                  58                 1.4415343
         2                  58                 1.4415343
         3                   8                -0.7207671
         4                   8                -0.7207671
         5                   8                -0.7207671
         6                   8                -0.7207671
--------------------------------------------------------------------------------


  Peak dynamic memory used =      10.19 MB 


  Timing analysis for GULP :

--------------------------------------------------------------------------------
  Task / Subroutine                                          Time (Seconds)
--------------------------------------------------------------------------------
  Calculation of reaxFF energy and derivatives                    0.2303
  Electronegativity equalisation                                  0.0042
  Symmetry generation of equivalent positions                     0.0017
--------------------------------------------------------------------------------
  Total CPU time                                                  0.2425
--------------------------------------------------------------------------------


  Job Finished at 18:29.05 30th August     2023                               

