********************************************************************************
*                       GENERAL UTILITY LATTICE PROGRAM                        *
*                                 Julian Gale                                  *
*                       Curtin Institute for Computation                       *
*                    School of Molecular and Life Sciences                     *
*                    Curtin University, Western Australia                      *
********************************************************************************
* Version = 6.2.0 * Last modified =  22nd August 2023                          *
********************************************************************************
*  single       - perform a single point run                                   *
*  md           - perform molecular dynamics run                               *
*  conp         - constant pressure calculation                                *
********************************************************************************

  Job Started  at 10:04.19 23rd August     2023                               

  Number of CPUs =     1


  Total number of configurations input =      1

********************************************************************************
*  Input for Configuration =   1                                               *
********************************************************************************

  Formula = Si12O24                                                     

  Number of irreducible atoms/shells =      60


  Total number atoms/shells =      60

  Dimensionality = 3               :  Bulk   



  Cartesian lattice vectors (Angstroms) :

        6.771494    3.909524    4.855125
       -6.771494    3.909524    4.855125
        0.000000   -7.819048    4.855125

  Cell parameters (Angstroms/Degrees):

  a =       9.2038    alpha =  94.7377
  b =       9.2038    beta  =  94.7377
  c =       9.2038    gamma =  94.7377

  Initial cell volume =         771.187657 Angs**3

  Temperature of configuration =   300.     K 

  Pressure of configuration =         0.000 GPa 

  Fractional coordinates of asymmetric unit :

--------------------------------------------------------------------------------
   No.  Atomic       x           y          z         Charge      Occupancy
        Label      (Frac)      (Frac)     (Frac)        (e)         (Frac)  
--------------------------------------------------------------------------------
      1 Si    c    0.106332 *  0.333397 *  0.878375 *   4.00000    1.000000    
      2 Si    c    0.878375 *  0.106332 *  0.333397 *   4.00000    1.000000    
      3 Si    c    0.333397 *  0.878375 *  0.106332 *   4.00000    1.000000    
      4 Si    c    0.666603 *  0.893668 *  0.121625 *   4.00000    1.000000    
      5 Si    c    0.893668 *  0.121625 *  0.666603 *   4.00000    1.000000    
      6 Si    c    0.121625 *  0.666603 *  0.893668 *   4.00000    1.000000    
      7 Si    c    0.893668 *  0.666603 *  0.121625 *   4.00000    1.000000    
      8 Si    c    0.121625 *  0.893668 *  0.666603 *   4.00000    1.000000    
      9 Si    c    0.666603 *  0.121625 *  0.893668 *   4.00000    1.000000    
     10 Si    c    0.333397 *  0.106332 *  0.878375 *   4.00000    1.000000    
     11 Si    c    0.106332 *  0.878375 *  0.333397 *   4.00000    1.000000    
     12 Si    c    0.878375 *  0.333397 *  0.106332 *   4.00000    1.000000    
     13 O     c    0.259238 *  0.740762 *  0.000000 *   0.86902    1.000000    
     14 O     c    0.000000 *  0.259238 *  0.740762 *   0.86902    1.000000    
     15 O     c    0.740762 *  0.000000 *  0.259238 *   0.86902    1.000000    
     16 O     c    0.740762 *  0.259238 *  0.000000 *   0.86902    1.000000    
     17 O     c    0.000000 *  0.740762 *  0.259238 *   0.86902    1.000000    
     18 O     c    0.259238 *  0.000000 *  0.740762 *   0.86902    1.000000    
     19 O     c    0.150065 *  0.849935 *  0.500000 *   0.86902    1.000000    
     20 O     c    0.500000 *  0.150065 *  0.849935 *   0.86902    1.000000    
     21 O     c    0.849935 *  0.500000 *  0.150065 *   0.86902    1.000000    
     22 O     c    0.849935 *  0.150065 *  0.500000 *   0.86902    1.000000    
     23 O     c    0.500000 *  0.849935 *  0.150065 *   0.86902    1.000000    
     24 O     c    0.150065 *  0.500000 *  0.849935 *   0.86902    1.000000    
     25 O     c    0.253778 *  0.253778 *  0.897094 *   0.86902    1.000000    
     26 O     c    0.897094 *  0.253778 *  0.253778 *   0.86902    1.000000    
     27 O     c    0.253778 *  0.897094 *  0.253778 *   0.86902    1.000000    
     28 O     c    0.746222 *  0.746222 *  0.102906 *   0.86902    1.000000    
     29 O     c    0.746222 *  0.102906 *  0.746222 *   0.86902    1.000000    
     30 O     c    0.102906 *  0.746222 *  0.746222 *   0.86902    1.000000    
     31 O     c    0.026519 *  0.026519 *  0.323465 *   0.86902    1.000000    
     32 O     c    0.323465 *  0.026519 *  0.026519 *   0.86902    1.000000    
     33 O     c    0.026519 *  0.323465 *  0.026519 *   0.86902    1.000000    
     34 O     c    0.973481 *  0.973481 *  0.676535 *   0.86902    1.000000    
     35 O     c    0.973481 *  0.676535 *  0.973481 *   0.86902    1.000000    
     36 O     c    0.676535 *  0.973481 *  0.973481 *   0.86902    1.000000    
     37 O     s    0.259238 *  0.740762 *  0.000000 *  -2.86902    1.000000    
     38 O     s    0.000000 *  0.259238 *  0.740762 *  -2.86902    1.000000    
     39 O     s    0.740762 *  0.000000 *  0.259238 *  -2.86902    1.000000    
     40 O     s    0.740762 *  0.259238 *  0.000000 *  -2.86902    1.000000    
     41 O     s    0.000000 *  0.740762 *  0.259238 *  -2.86902    1.000000    
     42 O     s    0.259238 *  0.000000 *  0.740762 *  -2.86902    1.000000    
     43 O     s    0.150065 *  0.849935 *  0.500000 *  -2.86902    1.000000    
     44 O     s    0.500000 *  0.150065 *  0.849935 *  -2.86902    1.000000    
     45 O     s    0.849935 *  0.500000 *  0.150065 *  -2.86902    1.000000    
     46 O     s    0.849935 *  0.150065 *  0.500000 *  -2.86902    1.000000    
     47 O     s    0.500000 *  0.849935 *  0.150065 *  -2.86902    1.000000    
     48 O     s    0.150065 *  0.500000 *  0.849935 *  -2.86902    1.000000    
     49 O     s    0.253778 *  0.253778 *  0.897094 *  -2.86902    1.000000    
     50 O     s    0.897094 *  0.253778 *  0.253778 *  -2.86902    1.000000    
     51 O     s    0.253778 *  0.897094 *  0.253778 *  -2.86902    1.000000    
     52 O     s    0.746222 *  0.746222 *  0.102906 *  -2.86902    1.000000    
     53 O     s    0.746222 *  0.102906 *  0.746222 *  -2.86902    1.000000    
     54 O     s    0.102906 *  0.746222 *  0.746222 *  -2.86902    1.000000    
     55 O     s    0.026519 *  0.026519 *  0.323465 *  -2.86902    1.000000    
     56 O     s    0.323465 *  0.026519 *  0.026519 *  -2.86902    1.000000    
     57 O     s    0.026519 *  0.323465 *  0.026519 *  -2.86902    1.000000    
     58 O     s    0.973481 *  0.973481 *  0.676535 *  -2.86902    1.000000    
     59 O     s    0.973481 *  0.676535 *  0.973481 *  -2.86902    1.000000    
     60 O     s    0.676535 *  0.973481 *  0.973481 *  -2.86902    1.000000    
--------------------------------------------------------------------------------



********************************************************************************
*  General input information                                                   *
********************************************************************************

  Species output for all configurations : 

--------------------------------------------------------------------------------
  Species    Type    Atomic    Atomic    Charge       Radii (Angs)     Library
                     Number     Mass       (e)     Cova   Ionic  VDW   Symbol
--------------------------------------------------------------------------------
    Si       Core       14      28.09   4.000000   1.200  0.000  2.100          
    O        Core        8      16.00   0.869020   0.730  0.000  1.360          
    O        Shell       8       0.00  -2.869020   0.730  0.000  1.360          
--------------------------------------------------------------------------------


  Lattice summation method               =    Ewald          (3-D)
                                         =    Parry          (2-D)
                                         =    Saunders et al (1-D)
  Accuracy factor for lattice sums       =   12.000


  Analytic derivatives to be used

  Time limit = Infinity

  Maximum range for interatomic potentials =        12.000000 Angstroms

  Taper potentials to zero over   1.0000 Angstroms using polynomial

  General interatomic potentials :

--------------------------------------------------------------------------------
Atom  Types   Potential      Parameter       Value         Units   Cutoffs(Ang)
  1     2                                                            Min /  Max 
--------------------------------------------------------------------------------
Si   c O    s Buckingham    Buckingham A     1283.9070    eV        0.000 12.000
                            Buckingham rho  0.32052000    Ang       
                            Buckingham C     10.661580    eV*Ang^6  
--------------------------------------------------------------------------------
O    s O    s Buckingham    Buckingham A     22764.000    eV        0.000 12.000
                            Buckingham rho  0.14900000    Ang       
                            Buckingham C     27.879000    eV*Ang^6  
--------------------------------------------------------------------------------
O    c O    s Spring (c-s)  Spring k 2       74.920000    eV*Ang^-2 0.000  0.800
                            Spring k 4       0.0000000    eV*Ang^-4 
--------------------------------------------------------------------------------

  General Three-body potentials :

--------------------------------------------------------------------------------
  Atoms       Potential      Parameter       Value         Units   Cutoffs(Ang)
  1 / 2 / 3                                                          Min /  Max 
--------------------------------------------------------------------------------
Si    core    Harmonic      Three-body cnst  2.0972400    eV*rad^-2 0.000  1.900
O     shel                  Three-body angl  109.47000    degrees   0.000  1.900
O     shel                  Three-body k4    0.0000000    eV*rad^-4 0.000  3.600
                            Three-body k3    0.0000000    eV*rad^-3 
--------------------------------------------------------------------------------

********************************************************************************
*  Output for configuration   1                                                *
********************************************************************************


  Components of energy : 

--------------------------------------------------------------------------------
  Interatomic potentials     =         378.85222191 eV    
  Three-body potentials      =           0.05863266 eV    
  Monopole - monopole (real) =       -1269.81289803 eV    
  Monopole - monopole (recip)=        -633.48791574 eV    
  Monopole - monopole (total)=       -1903.30081377 eV    
--------------------------------------------------------------------------------
  Total lattice energy       =       -1524.38995920 eV    
--------------------------------------------------------------------------------
  Total lattice energy       =         -147080.3286 kJ/(mole unit cells)
--------------------------------------------------------------------------------

  Equations of motion will be integrated using the leapfrog Verlet algorithm.

  Shell masses are zero thus shell positions will be optimised each time step
  until the forces on the shells are less than  0.10000D-07 or for a maximum of 
  100 iterations.

  Shell positions to be extrapolated to order =    8


********************************************************************************
*  Molecular Dynamics                                                          *
********************************************************************************

  Isothermal/baric ensemble (NPT) to be used

  Friction for temperature bath =           0.005000
  Friction for pressure    bath =           0.005000

  No. of mobile ions        =                 36

  No. of degrees of freedom =                105

  Time step                 =           0.000500 ps
  Equilibration time        =           1.000000 ps
  Production time           =           1.000000 ps
  Scaling time              =           1.000000 ps
  Scaling frequency         =           0.000500 ps
  Sampling frequency        =           0.005000 ps
  Write frequency           =           0.010000 ps
  TD-Force start time       =           0.000000 ps
  TD-Field start time       =           0.000000 ps



  Molecular dynamics equilibration :

  ** Time :            0.00500 ps :
     Properties:                   Instantaneous       Averaged
       Kinetic energy    (eV) =       1.321713          1.321713
       Potential energy  (eV) =   -1542.070981      -1542.070981
       Total energy      (eV) =   -1540.749268      -1540.749268
       Temperature       (K)  =     292.149087        292.149087
       Pressure         (GPa) =      -0.200457         -0.200457
       Cell parameter : a (A) =       9.203738          9.203738
       Cell parameter : b (A) =       9.203638          9.203638
       Cell parameter : c (A) =       9.204025          9.204025
       Cell angle : alpha (o) =      94.738689         94.738689
       Cell angle : beta  (o) =      94.739939         94.739939
       Cell angle : gamma (o) =      94.736019         94.736019
       Cell volume :   (A**3) =     771.188273        771.188273
  ** Time :            0.01000 ps :
     Properties:                   Instantaneous       Averaged
       Kinetic energy    (eV) =       1.334263          1.327988
       Potential energy  (eV) =   -1541.404907      -1541.737944
       Total energy      (eV) =   -1540.070644      -1540.409956
       Temperature       (K)  =     294.923011        293.536049
       Pressure         (GPa) =      -0.719712         -0.460094
       Cell parameter : a (A) =       9.203278          9.203508
       Cell parameter : b (A) =       9.202870          9.203254
       Cell parameter : c (A) =       9.204458          9.204241
       Cell angle : alpha (o) =      94.742216         94.740453
       Cell angle : beta  (o) =      94.747463         94.743701
       Cell angle : gamma (o) =      94.731015         94.733517
       Cell volume :   (A**3) =     771.114178        771.151226
  ** Time :            0.01500 ps :
     Properties:                   Instantaneous       Averaged
       Kinetic energy    (eV) =       1.362707          1.339561
       Potential energy  (eV) =   -1541.338902      -1541.604930
       Total energy      (eV) =   -1539.976195      -1540.265369
       Temperature       (K)  =     301.210299        296.094132
       Pressure         (GPa) =      -1.441998         -0.787470
       Cell parameter : a (A) =       9.202384          9.203133
       Cell parameter : b (A) =       9.201623          9.202710
       Cell parameter : c (A) =       9.204509          9.204331
       Cell angle : alpha (o) =      94.747122         94.742676
       Cell angle : beta  (o) =      94.756531         94.747978
       Cell angle : gamma (o) =      94.726850         94.731295
       Cell volume :   (A**3) =     770.927052        771.076501
  ** Time :            0.02000 ps :
     Properties:                   Instantaneous       Averaged
       Kinetic energy    (eV) =       1.344780          1.340866
       Potential energy  (eV) =   -1541.325983      -1541.535193
       Total energy      (eV) =   -1539.981203      -1540.194327
       Temperature       (K)  =     297.247787        296.382546
       Pressure         (GPa) =      -1.901476         -1.066203
       Cell parameter : a (A) =       9.201200          9.202650
       Cell parameter : b (A) =       9.200205          9.202084
       Cell parameter : c (A) =       9.203667          9.204165
       Cell angle : alpha (o) =      94.751748         94.744944
       Cell angle : beta  (o) =      94.762281         94.751553
       Cell angle : gamma (o) =      94.728087         94.730493
       Cell volume :   (A**3) =     770.624330        770.963458
  ** Time :            0.02500 ps :
     Properties:                   Instantaneous       Averaged
       Kinetic energy    (eV) =       1.337031          1.340099
       Potential energy  (eV) =   -1540.972534      -1541.422661
       Total energy      (eV) =   -1539.635503      -1540.082562
       Temperature       (K)  =     295.534919        296.213020
       Pressure         (GPa) =      -1.869384         -1.227221
       Cell parameter : a (A) =       9.200005          9.202121
       Cell parameter : b (A) =       9.199025          9.201472
       Cell parameter : c (A) =       9.202100          9.203752
       Cell angle : alpha (o) =      94.755379         94.747031
       Cell angle : beta  (o) =      94.763202         94.753883
       Cell angle : gamma (o) =      94.735398         94.731474
       Cell volume :   (A**3) =     770.279658        770.826698
  ** Time :            0.03000 ps :
     Properties:                   Instantaneous       Averaged
       Kinetic energy    (eV) =       1.353474          1.342328
       Potential energy  (eV) =   -1540.753481      -1541.311131
       Total energy      (eV) =   -1539.400007      -1539.968803
       Temperature       (K)  =     299.169445        296.705758
       Pressure         (GPa) =      -1.514333         -1.275484
       Cell parameter : a (A) =       9.199003          9.201601
       Cell parameter : b (A) =       9.198268          9.200938
       Cell parameter : c (A) =       9.200325          9.203181
       Cell angle : alpha (o) =      94.757847         94.748834
       Cell angle : beta  (o) =      94.761360         94.755129
       Cell angle : gamma (o) =      94.745537         94.733818
       Cell volume :   (A**3) =     769.970709        770.684033
  ** Time :            0.03500 ps :
     Properties:                   Instantaneous       Averaged
       Kinetic energy    (eV) =       1.365003          1.345567
       Potential energy  (eV) =   -1540.845055      -1541.244549
       Total energy      (eV) =   -1539.480052      -1539.898982
       Temperature       (K)  =     301.717738        297.421755
       Pressure         (GPa) =      -1.006397         -1.237372
       Cell parameter : a (A) =       9.198278          9.201126
       Cell parameter : b (A) =       9.197763          9.200485
       Cell parameter : c (A) =       9.198907          9.202570
       Cell angle : alpha (o) =      94.759346         94.750335
       Cell angle : beta  (o) =      94.760336         94.755873
       Cell angle : gamma (o) =      94.753521         94.736632
       Cell volume :   (A**3) =     769.738644        770.548978
  ** Time :            0.04000 ps :
     Properties:                   Instantaneous       Averaged
       Kinetic energy    (eV) =       1.361738          1.347588
       Potential energy  (eV) =   -1541.013443      -1541.215661
       Total energy      (eV) =   -1539.651704      -1539.868072
       Temperature       (K)  =     300.996155        297.868555
       Pressure         (GPa) =      -0.351274         -1.126792
       Cell parameter : a (A) =       9.197887          9.200722
       Cell parameter : b (A) =       9.197329          9.200090
       Cell parameter : c (A) =       9.198283          9.202034
       Cell angle : alpha (o) =      94.760818         94.751646
       Cell angle : beta  (o) =      94.762194         94.756663
       Cell angle : gamma (o) =      94.756679         94.739138
       Cell volume :   (A**3) =     769.609489        770.431542
  ** Time :            0.04500 ps :
     Properties:                   Instantaneous       Averaged
       Kinetic energy    (eV) =       1.348343          1.347672
       Potential energy  (eV) =   -1540.994683      -1541.191107
       Total energy      (eV) =   -1539.646340      -1539.843435
       Temperature       (K)  =     298.035342        297.887087
       Pressure         (GPa) =       0.340743         -0.963740
       Cell parameter : a (A) =       9.197892          9.200407
       Cell parameter : b (A) =       9.197020          9.199749
       Cell parameter : c (A) =       9.198595          9.201652
       Cell angle : alpha (o) =      94.762950         94.752902
       Cell angle : beta  (o) =      94.766356         94.757740
       Cell angle : gamma (o) =      94.755691         94.740977
       Cell volume :   (A**3) =     769.603549        770.339543
  ** Time :            0.05000 ps :
     Properties:                   Instantaneous       Averaged
       Kinetic energy    (eV) =       1.339027          1.346808
       Potential energy  (eV) =   -1540.721280      -1541.144125
       Total energy      (eV) =   -1539.382253      -1539.797317
       Temperature       (K)  =     295.976136        297.695992
       Pressure         (GPa) =       0.818173         -0.785431
       Cell parameter : a (A) =       9.198266          9.200193
       Cell parameter : b (A) =       9.196936          9.199468
       Cell parameter : c (A) =       9.199617          9.201449
       Cell angle : alpha (o) =      94.765597         94.754171
       Cell angle : beta  (o) =      94.770962         94.759063
       Cell angle : gamma (o) =      94.752921         94.742172
       Cell volume :   (A**3) =     769.707849        770.276373
  ** Time :            0.05500 ps :
     Properties:                   Instantaneous       Averaged
       Kinetic energy    (eV) =       1.353308          1.347399
       Potential energy  (eV) =   -1540.486097      -1541.084304
       Total energy      (eV) =   -1539.132789      -1539.736905
       Temperature       (K)  =     299.132853        297.826616
       Pressure         (GPa) =       0.904776         -0.631628
       Cell parameter : a (A) =       9.198859          9.200072
       Cell parameter : b (A) =       9.196994          9.199243
       Cell parameter : c (A) =       9.200931          9.201402
       Cell angle : alpha (o) =      94.768469         94.755471
       Cell angle : beta  (o) =      94.774414         94.760458
       Cell angle : gamma (o) =      94.750781         94.742954
       Cell volume :   (A**3) =     769.867113        770.239168
  ** Time :            0.06000 ps :
     Properties:                   Instantaneous       Averaged
       Kinetic energy    (eV) =       1.368853          1.349187
       Potential energy  (eV) =   -1540.645938      -1541.047774
       Total energy      (eV) =   -1539.277085      -1539.698587
       Temperature       (K)  =     302.568855        298.221802
       Pressure         (GPa) =       0.680966         -0.522135
       Cell parameter : a (A) =       9.199465          9.200021
       Cell parameter : b (A) =       9.196986          9.199055
       Cell parameter : c (A) =       9.202144          9.201463
       Cell angle : alpha (o) =      94.771309         94.756791
       Cell angle : beta  (o) =      94.776236         94.761773
       Cell angle : gamma (o) =      94.750011         94.743542
       Cell volume :   (A**3) =     770.013799        770.220387
  ** Time :            0.06500 ps :
     Properties:                   Instantaneous       Averaged
       Kinetic energy    (eV) =       1.348222          1.349112
       Potential energy  (eV) =   -1540.731410      -1541.023438
       Total energy      (eV) =   -1539.383188      -1539.674325
       Temperature       (K)  =     298.008683        298.205408
       Pressure         (GPa) =       0.339761         -0.455776
       Cell parameter : a (A) =       9.199937          9.200015
       Cell parameter : b (A) =       9.196808          9.198882
       Cell parameter : c (A) =       9.203039          9.201585
       Cell angle : alpha (o) =      94.773911         94.758108
       Cell angle : beta  (o) =      94.777249         94.762963
       Cell angle : gamma (o) =      94.749531         94.744003
       Cell volume :   (A**3) =     770.109446        770.211853
  ** Time :            0.07000 ps :
     Properties:                   Instantaneous       Averaged
       Kinetic energy    (eV) =       1.340688          1.348511
       Potential energy  (eV) =   -1540.416969      -1540.980119
       Total energy      (eV) =   -1539.076281      -1539.631608
       Temperature       (K)  =     296.343336        298.072403
       Pressure         (GPa) =      -0.152854         -0.434125
       Cell parameter : a (A) =       9.200146          9.200024
       Cell parameter : b (A) =       9.196444          9.198708
       Cell parameter : c (A) =       9.203531          9.201724
       Cell angle : alpha (o) =      94.776179         94.759399
       Cell angle : beta  (o) =      94.778585         94.764079
       Cell angle : gamma (o) =      94.748904         94.744353
       Cell volume :   (A**3) =     770.133982        770.206291
  ** Time :            0.07500 ps :
     Properties:                   Instantaneous       Averaged
       Kinetic energy    (eV) =       1.370289          1.349963
       Potential energy  (eV) =   -1540.419848      -1540.942767
       Total energy      (eV) =   -1539.049558      -1539.592805
       Temperature       (K)  =     302.886315        298.393331
       Pressure         (GPa) =      -0.854324         -0.462181
       Cell parameter : a (A) =       9.199896          9.200016
       Cell parameter : b (A) =       9.195799          9.198514
       Cell parameter : c (A) =       9.203506          9.201843
       Cell angle : alpha (o) =      94.777998         94.760639
       Cell angle : beta  (o) =      94.780539         94.765177
       Cell angle : gamma (o) =      94.749414         94.744691
       Cell volume :   (A**3) =     770.051657        770.195982
  ** Time :            0.08000 ps :
     Properties:                   Instantaneous       Averaged
       Kinetic energy    (eV) =       1.361325          1.350673
       Potential energy  (eV) =   -1540.690738      -1540.927016
       Total energy      (eV) =   -1539.329414      -1539.576343
       Temperature       (K)  =     300.904740        298.550294
       Pressure         (GPa) =      -1.437705         -0.523267
       Cell parameter : a (A) =       9.199115          9.199959
       Cell parameter : b (A) =       9.194784          9.198281
       Cell parameter : c (A) =       9.202943          9.201911
       Cell angle : alpha (o) =      94.779186         94.761798
       Cell angle : beta  (o) =      94.782048         94.766231
       Cell angle : gamma (o) =      94.752143         94.745156
       Cell volume :   (A**3) =     769.847455        770.174199
  ** Time :            0.08500 ps :
     Properties:                   Instantaneous       Averaged
       Kinetic energy    (eV) =       1.347899          1.350510
       Potential energy  (eV) =   -1540.606422      -1540.908157
       Total energy      (eV) =   -1539.258523      -1539.557647
       Temperature       (K)  =     297.937129        298.514225
       Pressure         (GPa) =      -1.736700         -0.594827
       Cell parameter : a (A) =       9.198008          9.199844
       Cell parameter : b (A) =       9.193447          9.197996
       Cell parameter : c (A) =       9.202058          9.201920
       Cell angle : alpha (o) =      94.779728         94.762853
       Cell angle : beta  (o) =      94.782299         94.767176
       Cell angle : gamma (o) =      94.756064         94.745798
       Cell volume :   (A**3) =     769.563071        770.138250
  ** Time :            0.09000 ps :
     Properties:                   Instantaneous       Averaged
       Kinetic energy    (eV) =       1.368206          1.351493
       Potential energy  (eV) =   -1540.635653      -1540.893018
       Total energy      (eV) =   -1539.267447      -1539.541525
       Temperature       (K)  =     302.425809        298.731535
       Pressure         (GPa) =      -1.885548         -0.666770
       Cell parameter : a (A) =       9.196787          9.199675
       Cell parameter : b (A) =       9.191779          9.197651
       Cell parameter : c (A) =       9.201121          9.201876
       Cell angle : alpha (o) =      94.780246         94.763819
       Cell angle : beta  (o) =      94.782289         94.768016
       Cell angle : gamma (o) =      94.758790         94.746520
       Cell volume :   (A**3) =     769.239071        770.088296
  ** Time :            0.09500 ps :
     Properties:                   Instantaneous       Averaged
       Kinetic energy    (eV) =       1.368558          1.352391
       Potential energy  (eV) =   -1540.953026      -1540.896176
       Total energy      (eV) =   -1539.584468      -1539.543785
       Temperature       (K)  =     302.503537        298.930062
       Pressure         (GPa) =      -1.827401         -0.728133
       Cell parameter : a (A) =       9.195578          9.199459
       Cell parameter : b (A) =       9.189784          9.197237
       Cell parameter : c (A) =       9.200345          9.201795
       Cell angle : alpha (o) =      94.781656         94.764758
       Cell angle : beta  (o) =      94.784092         94.768862
       Cell angle : gamma (o) =      94.758349         94.747142
       Cell volume :   (A**3) =     768.902690        770.025896
  ** Time :            0.10000 ps :
     Properties:                   Instantaneous       Averaged
       Kinetic energy    (eV) =       1.352349          1.352389
       Potential energy  (eV) =   -1541.027617      -1540.902748
       Total energy      (eV) =   -1539.675268      -1539.550360
       Temperature       (K)  =     298.920751        298.929596
       Pressure         (GPa) =      -1.458129         -0.764903
       Cell parameter : a (A) =       9.194548          9.199213
       Cell parameter : b (A) =       9.187775          9.196764
       Cell parameter : c (A) =       9.199845          9.201697
       Cell angle : alpha (o) =      94.783961         94.765718
       Cell angle : beta  (o) =      94.788384         94.769838
       Cell angle : gamma (o) =      94.755209         94.747546
       Cell volume :   (A**3) =     768.602437        769.954723
  ** Time :            0.10500 ps :
     Properties:                   Instantaneous       Averaged
       Kinetic energy    (eV) =       1.355570          1.352540
       Potential energy  (eV) =   -1540.948875      -1540.904945
       Total energy      (eV) =   -1539.593305      -1539.552405
       Temperature       (K)  =     299.632710        298.963078
       Pressure         (GPa) =      -0.949841         -0.773917
       Cell parameter : a (A) =       9.193849          9.198958
       Cell parameter : b (A) =       9.186221          9.196262
       Cell parameter : c (A) =       9.199530          9.201594
       Cell angle : alpha (o) =      94.786114         94.766689
       Cell angle : beta  (o) =      94.793430         94.770961
       Cell angle : gamma (o) =      94.751675         94.747742
       Cell volume :   (A**3) =     768.383276        769.879892
  ** Time :            0.11000 ps :
     Properties:                   Instantaneous       Averaged
       Kinetic energy    (eV) =       1.363603          1.353043
       Potential energy  (eV) =   -1541.042121      -1540.911180
       Total energy      (eV) =   -1539.678518      -1539.558137
       Temperature       (K)  =     301.408344        299.074226
       Pressure         (GPa) =      -0.496795         -0.761447
       Cell parameter : a (A) =       9.193461          9.198708
       Cell parameter : b (A) =       9.185431          9.195769
       Cell parameter : c (A) =       9.199164          9.201484
       Cell angle : alpha (o) =      94.786991         94.767612
       Cell angle : beta  (o) =      94.796198         94.772109
       Cell angle : gamma (o) =      94.750272         94.747857
       Cell volume :   (A**3) =     768.251279        769.805864
  ** Time :            0.11500 ps :
     Properties:                   Instantaneous       Averaged
       Kinetic energy    (eV) =       1.358284          1.353271
       Potential energy  (eV) =   -1541.141787      -1540.921206
       Total energy      (eV) =   -1539.783503      -1539.567935
       Temperature       (K)  =     300.232611        299.124591
       Pressure         (GPa) =      -0.033783         -0.729859
       Cell parameter : a (A) =       9.193294          9.198473
       Cell parameter : b (A) =       9.185425          9.195320
       Cell parameter : c (A) =       9.198704          9.201363
       Cell angle : alpha (o) =      94.786222         94.768421
       Cell angle : beta  (o) =      94.794950         94.773102
       Cell angle : gamma (o) =      94.751892         94.748033
       Cell volume :   (A**3) =     768.198917        769.735997
  ** Time :            0.12000 ps :
     Properties:                   Instantaneous       Averaged
       Kinetic energy    (eV) =       1.362637          1.353661
       Potential energy  (eV) =   -1541.201517      -1540.932886
       Total energy      (eV) =   -1539.838880      -1539.579225
       Temperature       (K)  =     301.194884        299.210853
       Pressure         (GPa) =       0.441588         -0.681019
       Cell parameter : a (A) =       9.193364          9.198260
       Cell parameter : b (A) =       9.185969          9.194930
       Cell parameter : c (A) =       9.198446          9.201241
       Cell angle : alpha (o) =      94.784415         94.769087
       Cell angle : beta  (o) =      94.790903         94.773843
       Cell angle : gamma (o) =      94.754909         94.748319
       Cell volume :   (A**3) =     768.232274        769.673342
  ** Time :            0.12500 ps :
     Properties:                   Instantaneous       Averaged
       Kinetic energy    (eV) =       1.365661          1.354141
       Potential energy  (eV) =   -1541.394609      -1540.951355
       Total energy      (eV) =   -1540.028947      -1539.597214
       Temperature       (K)  =     301.863350        299.316953
       Pressure         (GPa) =       0.716196         -0.625041
       Cell parameter : a (A) =       9.193660          9.198076
       Cell parameter : b (A) =       9.186583          9.194596
       Cell parameter : c (A) =       9.198718          9.201140
       Cell angle : alpha (o) =      94.782514         94.769624
       Cell angle : beta  (o) =      94.787194         94.774377
       Cell angle : gamma (o) =      94.755716         94.748615
       Cell volume :   (A**3) =     768.336969        769.619887
  ** Time :            0.13000 ps :
     Properties:                   Instantaneous       Averaged
       Kinetic energy    (eV) =       1.349332          1.353956
       Potential energy  (eV) =   -1541.433179      -1540.969887
       Total energy      (eV) =   -1540.083848      -1539.615930
       Temperature       (K)  =     298.253883        299.276066
       Pressure         (GPa) =       0.770336         -0.571268
       Cell parameter : a (A) =       9.194082          9.197922
       Cell parameter : b (A) =       9.186822          9.194297
       Cell parameter : c (A) =       9.199567          9.201080
       Cell angle : alpha (o) =      94.781074         94.770065
       Cell angle : beta  (o) =      94.786470         94.774842
       Cell angle : gamma (o) =      94.751421         94.748723
       Cell volume :   (A**3) =     768.471106        769.575703
  ** Time :            0.13500 ps :
     Properties:                   Instantaneous       Averaged
       Kinetic energy    (eV) =       1.344400          1.353602
       Potential energy  (eV) =   -1541.193622      -1540.978173
       Total energy      (eV) =   -1539.849223      -1539.624571
       Temperature       (K)  =     297.163689        299.197829
       Pressure         (GPa) =       0.697145         -0.524194
       Cell parameter : a (A) =       9.194592          9.197799
       Cell parameter : b (A) =       9.186625          9.194013
       Cell parameter : c (A) =       9.200751          9.201068
       Cell angle : alpha (o) =      94.780000         94.770433
       Cell angle : beta  (o) =      94.789152         94.775372
       Cell angle : gamma (o) =      94.742883         94.748507
       Cell volume :   (A**3) =     768.604731        769.539741
  ** Time :            0.14000 ps :
     Properties:                   Instantaneous       Averaged
       Kinetic energy    (eV) =       1.366938          1.354079
       Potential energy  (eV) =   -1541.182652      -1540.985476
       Total energy      (eV) =   -1539.815713      -1539.631397
       Temperature       (K)  =     302.145597        299.303107
       Pressure         (GPa) =       0.384215         -0.491683
       Cell parameter : a (A) =       9.195142          9.197704
       Cell parameter : b (A) =       9.186196          9.193734
       Cell parameter : c (A) =       9.201791          9.201094
       Cell angle : alpha (o) =      94.778845         94.770733
       Cell angle : beta  (o) =      94.793230         94.776010
       Cell angle : gamma (o) =      94.734342         94.748001
       Cell volume :   (A**3) =     768.708540        769.510055
  ** Time :            0.14500 ps :
     Properties:                   Instantaneous       Averaged
       Kinetic energy    (eV) =       1.363357          1.354398
       Potential energy  (eV) =   -1541.431128      -1541.000843
       Total energy      (eV) =   -1540.067771      -1539.646445
       Temperature       (K)  =     301.353906        299.373824
       Pressure         (GPa) =      -0.162626         -0.480320
       Cell parameter : a (A) =       9.195507          9.197628
       Cell parameter : b (A) =       9.185729          9.193458
       Cell parameter : c (A) =       9.202163          9.201130
       Cell angle : alpha (o) =      94.777449         94.770965
       Cell angle : beta  (o) =      94.795381         94.776678
       Cell angle : gamma (o) =      94.730460         94.747396
       Cell volume :   (A**3) =     768.734686        769.483318
  ** Time :            0.15000 ps :
     Properties:                   Instantaneous       Averaged
       Kinetic energy    (eV) =       1.340316          1.353929
       Potential energy  (eV) =   -1541.323770      -1541.011607
       Total energy      (eV) =   -1539.983454      -1539.657678
       Temperature       (K)  =     296.261136        299.270068
       Pressure         (GPa) =      -0.678758         -0.486978
       Cell parameter : a (A) =       9.195441          9.197555
       Cell parameter : b (A) =       9.185342          9.193187
       Cell parameter : c (A) =       9.201739          9.201151
       Cell angle : alpha (o) =      94.776175         94.771138
       Cell angle : beta  (o) =      94.793834         94.777250
       Cell angle : gamma (o) =      94.732581         94.746902
       Cell volume :   (A**3) =     768.662341        769.455952
  ** Time :            0.15500 ps :
     Properties:                   Instantaneous       Averaged
       Kinetic energy    (eV) =       1.342685          1.353566
       Potential energy  (eV) =   -1540.973539      -1541.010379
       Total energy      (eV) =   -1539.630854      -1539.656813
       Temperature       (K)  =     296.784649        299.189893
       Pressure         (GPa) =      -1.048270         -0.505178
       Cell parameter : a (A) =       9.194878          9.197469
       Cell parameter : b (A) =       9.185046          9.192925
       Cell parameter : c (A) =       9.200775          9.201139
       Cell angle : alpha (o) =      94.775215         94.771270
       Cell angle : beta  (o) =      94.789540         94.777646
       Cell angle : gamma (o) =      94.738193         94.746621
       Cell volume :   (A**3) =     768.509597        769.425425
  ** Time :            0.16000 ps :
     Properties:                   Instantaneous       Averaged
       Kinetic energy    (eV) =       1.362234          1.353837
       Potential energy  (eV) =   -1540.919982      -1541.007555
       Total energy      (eV) =   -1539.557748      -1539.653717
       Temperature       (K)  =     301.105773        299.249764
       Pressure         (GPa) =      -1.289650         -0.529825
       Cell parameter : a (A) =       9.193885          9.197357
       Cell parameter : b (A) =       9.184640          9.192666
       Cell parameter : c (A) =       9.199675          9.201093
       Cell angle : alpha (o) =      94.774546         94.771372
       Cell angle : beta  (o) =      94.785218         94.777883
       Cell angle : gamma (o) =      94.742627         94.746496
       Cell volume :   (A**3) =     768.301573        769.390305
  ** Time :            0.16500 ps :
     Properties:                   Instantaneous       Averaged
       Kinetic energy    (eV) =       1.363243          1.354122
       Potential energy  (eV) =   -1541.086144      -1541.009936
       Total energy      (eV) =   -1539.722901      -1539.655814
       Temperature       (K)  =     301.328763        299.312764
       Pressure         (GPa) =      -1.355107         -0.554993
       Cell parameter : a (A) =       9.192674          9.197215
       Cell parameter : b (A) =       9.183861          9.192399
       Cell parameter : c (A) =       9.198780          9.201023
       Cell angle : alpha (o) =      94.774499         94.771467
       Cell angle : beta  (o) =      94.783390         94.778050
       Cell angle : gamma (o) =      94.742308         94.746369
       Cell volume :   (A**3) =     768.063206        769.350089
  ** Time :            0.17000 ps :
     Properties:                   Instantaneous       Averaged
       Kinetic energy    (eV) =       1.356773          1.354200
       Potential energy  (eV) =   -1541.158714      -1541.014312
       Total energy      (eV) =   -1539.801941      -1539.660112
       Temperature       (K)  =     299.898585        299.329994
       Pressure         (GPa) =      -1.141701         -0.572410
       Cell parameter : a (A) =       9.191595          9.197050
       Cell parameter : b (A) =       9.182717          9.192114
       Cell parameter : c (A) =       9.198220          9.200940
       Cell angle : alpha (o) =      94.775078         94.771573
       Cell angle : beta  (o) =      94.784354         94.778235
       Cell angle : gamma (o) =      94.737471         94.746108
       Cell volume :   (A**3) =     767.834643        769.305517
  ** Time :            0.17500 ps :
     Properties:                   Instantaneous       Averaged
       Kinetic energy    (eV) =       1.356875          1.354277
       Potential energy  (eV) =   -1541.155827      -1541.018355
       Total energy      (eV) =   -1539.798952      -1539.664079
       Temperature       (K)  =     299.921120        299.346884
       Pressure         (GPa) =      -0.670589         -0.575336
       Cell parameter : a (A) =       9.190947          9.196875
       Cell parameter : b (A) =       9.181514          9.191811
       Cell parameter : c (A) =       9.197988          9.200856
       Cell angle : alpha (o) =      94.775233         94.771678
       Cell angle : beta  (o) =      94.785998         94.778457
       Cell angle : gamma (o) =      94.730677         94.745667
       Cell volume :   (A**3) =     767.666600        769.258691
  ** Time :            0.18000 ps :
     Properties:                   Instantaneous       Averaged
       Kinetic energy    (eV) =       1.365236          1.354581
       Potential energy  (eV) =   -1541.247410      -1541.024718
       Total energy      (eV) =   -1539.882174      -1539.670137
       Temperature       (K)  =     301.769319        299.414173
       Pressure         (GPa) =      -0.148863         -0.563546
       Cell parameter : a (A) =       9.190788          9.196706
       Cell parameter : b (A) =       9.180658          9.191502
       Cell parameter : c (A) =       9.197972          9.200776
       Cell angle : alpha (o) =      94.773936         94.771741
       Cell angle : beta  (o) =      94.785245         94.778646
       Cell angle : gamma (o) =      94.724705         94.745085
       Cell volume :   (A**3) =     767.590273        769.212346
  ** Time :            0.18500 ps :
     Properties:                   Instantaneous       Averaged
       Kinetic energy    (eV) =       1.367324          1.354925
       Potential energy  (eV) =   -1541.475875      -1541.036911
       Total energy      (eV) =   -1540.108551      -1539.681986
       Temperature       (K)  =     302.230762        299.490297
       Pressure         (GPa) =       0.230573         -0.542078
       Cell parameter : a (A) =       9.190949          9.196551
       Cell parameter : b (A) =       9.180424          9.191202
       Cell parameter : c (A) =       9.197965          9.200700
       Cell angle : alpha (o) =      94.771094         94.771723
       Cell angle : beta  (o) =      94.780551         94.778697
       Cell angle : gamma (o) =      94.721607         94.744450
       Cell volume :   (A**3) =     767.596570        769.168677
  ** Time :            0.19000 ps :
     Properties:                   Instantaneous       Averaged
       Kinetic energy    (eV) =       1.351627          1.354839
       Potential energy  (eV) =   -1541.559385      -1541.050661
       Total energy      (eV) =   -1540.207757      -1539.695822
       Temperature       (K)  =     298.761301        299.471113
       Pressure         (GPa) =       0.497200         -0.514685
       Cell parameter : a (A) =       9.191239          9.196411
       Cell parameter : b (A) =       9.180826          9.190929
       Cell parameter : c (A) =       9.197863          9.200625
       Cell angle : alpha (o) =      94.767128         94.771602
       Cell angle : beta  (o) =      94.773300         94.778555
       Cell angle : gamma (o) =      94.721445         94.743845
       Cell volume :   (A**3) =     767.659792        769.128969
  ** Time :            0.19500 ps :
     Properties:                   Instantaneous       Averaged
       Kinetic energy    (eV) =       1.335372          1.354339
       Potential energy  (eV) =   -1541.271551      -1541.056324
       Total energy      (eV) =   -1539.936179      -1539.701985
       Temperature       (K)  =     295.168135        299.360781
       Pressure         (GPa) =       0.699104         -0.483493
       Cell parameter : a (A) =       9.191567          9.196287
       Cell parameter : b (A) =       9.181673          9.190692
       Cell parameter : c (A) =       9.197799          9.200553
       Cell angle : alpha (o) =      94.762651         94.771373
       Cell angle : beta  (o) =      94.766456         94.778245
       Cell angle : gamma (o) =      94.722091         94.743287
       Cell volume :   (A**3) =     767.765896        769.094019
  ** Time :            0.20000 ps :
     Properties:                   Instantaneous       Averaged
       Kinetic energy    (eV) =       1.352722          1.354299
       Potential energy  (eV) =   -1540.966655      -1541.054083
       Total energy      (eV) =   -1539.613933      -1539.699784
       Temperature       (K)  =     299.003233        299.351842
       Pressure         (GPa) =       0.690117         -0.454074
       Cell parameter : a (A) =       9.191867          9.196176
       Cell parameter : b (A) =       9.182655          9.190491
       Cell parameter : c (A) =       9.197919          9.200487
       Cell angle : alpha (o) =      94.758409         94.771049
       Cell angle : beta  (o) =      94.762383         94.777848
       Cell angle : gamma (o) =      94.721252         94.742736
       Cell volume :   (A**3) =     767.894262        769.064025
  ** Time :            0.20500 ps :
     Properties:                   Instantaneous       Averaged
       Kinetic energy    (eV) =       1.374965          1.354803
       Potential energy  (eV) =   -1541.188168      -1541.057353
       Total energy      (eV) =   -1539.813203      -1539.702550
       Temperature       (K)  =     303.919738        299.463254
       Pressure         (GPa) =       0.374309         -0.433812
       Cell parameter : a (A) =       9.192059          9.196076
       Cell parameter : b (A) =       9.183388          9.190318
       Cell parameter : c (A) =       9.198082          9.200428
       Cell angle : alpha (o) =      94.754576         94.770647
       Cell angle : beta  (o) =      94.761133         94.777441
       Cell angle : gamma (o) =      94.718255         94.742139
       Cell volume :   (A**3) =     767.995038        769.037952
  ** Time :            0.21000 ps :
     Properties:                   Instantaneous       Averaged
       Kinetic energy    (eV) =       1.357425          1.354866
       Potential energy  (eV) =   -1541.425417      -1541.066116
       Total energy      (eV) =   -1540.067992      -1539.711251
       Temperature       (K)  =     300.042804        299.477053
       Pressure         (GPa) =      -0.015530         -0.423833
       Cell parameter : a (A) =       9.192135          9.195982
       Cell parameter : b (A) =       9.183654          9.190159
       Cell parameter : c (A) =       9.198037          9.200371
       Cell angle : alpha (o) =      94.751059         94.770180
       Cell angle : beta  (o) =      94.760653         94.777041
       Cell angle : gamma (o) =      94.714060         94.741470
       Cell volume :   (A**3) =     768.029956        769.013952
  ** Time :            0.21500 ps :
     Properties:                   Instantaneous       Averaged
       Kinetic energy    (eV) =       1.342395          1.354575
       Potential energy  (eV) =   -1541.247719      -1541.070340
       Total energy      (eV) =   -1539.905324      -1539.715764
       Temperature       (K)  =     296.720542        299.412948
       Pressure         (GPa) =      -0.410388         -0.423539
       Cell parameter : a (A) =       9.192092          9.195892
       Cell parameter : b (A) =       9.183466          9.190003
       Cell parameter : c (A) =       9.197753          9.200310
       Cell angle : alpha (o) =      94.748539         94.769677
       Cell angle : beta  (o) =      94.759529         94.776634
       Cell angle : gamma (o) =      94.709615         94.740730
       Cell volume :   (A**3) =     767.996763        768.990296
  ** Time :            0.22000 ps :
     Properties:                   Instantaneous       Averaged
       Kinetic energy    (eV) =       1.354448          1.354573
       Potential energy  (eV) =   -1541.068200      -1541.070291
       Total energy      (eV) =   -1539.713752      -1539.715719
       Temperature       (K)  =     299.384797        299.412308
       Pressure         (GPa) =      -0.969144         -0.436001
       Cell parameter : a (A) =       9.191782          9.195798
       Cell parameter : b (A) =       9.182856          9.189841
       Cell parameter : c (A) =       9.197203          9.200240
       Cell angle : alpha (o) =      94.747647         94.769176
       Cell angle : beta  (o) =      94.757813         94.776206
       Cell angle : gamma (o) =      94.705590         94.739931
       Cell volume :   (A**3) =     767.881993        768.965108
  ** Time :            0.22500 ps :
     Properties:                   Instantaneous       Averaged
       Kinetic energy    (eV) =       1.357389          1.354635
       Potential energy  (eV) =   -1541.107716      -1541.071123
       Total energy      (eV) =   -1539.750327      -1539.716488
       Temperature       (K)  =     300.034785        299.426141
       Pressure         (GPa) =      -1.619984         -0.462436
       Cell parameter : a (A) =       9.190977          9.195691
       Cell parameter : b (A) =       9.181854          9.189663
       Cell parameter : c (A) =       9.196251          9.200151
       Cell angle : alpha (o) =      94.747975         94.768705
       Cell angle : beta  (o) =      94.756339         94.775764
       Cell angle : gamma (o) =      94.702549         94.739100
       Cell volume :   (A**3) =     767.656613        768.936030
  ** Time :            0.23000 ps :
     Properties:                   Instantaneous       Averaged
       Kinetic energy    (eV) =       1.341851          1.354357
       Potential energy  (eV) =   -1540.984908      -1541.069249
       Total energy      (eV) =   -1539.643058      -1539.714891
       Temperature       (K)  =     296.600266        299.364709
       Pressure         (GPa) =      -2.084489         -0.497893
       Cell parameter : a (A) =       9.189625          9.195559
       Cell parameter : b (A) =       9.180617          9.189467
       Cell parameter : c (A) =       9.194870          9.200036
       Cell angle : alpha (o) =      94.748475         94.768266
       Cell angle : beta  (o) =      94.755748         94.775329
       Cell angle : gamma (o) =      94.700640         94.738264
       Cell volume :   (A**3) =     767.327441        768.901061
  ** Time :            0.23500 ps :
     Properties:                   Instantaneous       Averaged
       Kinetic energy    (eV) =       1.335474          1.353955
       Potential energy  (eV) =   -1540.604492      -1541.059360
       Total energy      (eV) =   -1539.269019      -1539.705405
       Temperature       (K)  =     295.190733        299.275901
       Pressure         (GPa) =      -2.279799         -0.536053
       Cell parameter : a (A) =       9.187885          9.195396
       Cell parameter : b (A) =       9.179391          9.189252
       Cell parameter : c (A) =       9.193166          9.199890
       Cell angle : alpha (o) =      94.748657         94.767848
       Cell angle : beta  (o) =      94.755871         94.774915
       Cell angle : gamma (o) =      94.699953         94.737449
       Cell volume :   (A**3) =     766.938036        768.859294
  ** Time :            0.24000 ps :
     Properties:                   Instantaneous       Averaged
       Kinetic energy    (eV) =       1.353155          1.353939
       Potential energy  (eV) =   -1540.354434      -1541.044674
       Total energy      (eV) =   -1539.001279      -1539.690735
       Temperature       (K)  =     299.099001        299.272215
       Pressure         (GPa) =      -2.258984         -0.572225
       Cell parameter : a (A) =       9.185981          9.195200
       Cell parameter : b (A) =       9.178346          9.189025
       Cell parameter : c (A) =       9.191269          9.199711
       Cell angle : alpha (o) =      94.748856         94.767453
       Cell angle : beta  (o) =      94.755902         94.774519
       Cell angle : gamma (o) =      94.700853         94.736687
       Cell volume :   (A**3) =     766.532220        768.810813
  ** Time :            0.24500 ps :
     Properties:                   Instantaneous       Averaged
       Kinetic energy    (eV) =       1.365008          1.354165
       Potential energy  (eV) =   -1540.467210      -1541.032889
       Total energy      (eV) =   -1539.102202      -1539.678724
       Temperature       (K)  =     301.718857        299.322147
       Pressure         (GPa) =      -1.994459         -0.601531
       Cell parameter : a (A) =       9.184157          9.194974
       Cell parameter : b (A) =       9.177492          9.188790
       Cell parameter : c (A) =       9.189397          9.199500
       Cell angle : alpha (o) =      94.750154         94.767100
       Cell angle : beta  (o) =      94.755352         94.774128
       Cell angle : gamma (o) =      94.703425         94.736008
       Cell volume :   (A**3) =     766.148691        768.756484
  ** Time :            0.25000 ps :
     Properties:                   Instantaneous       Averaged
       Kinetic energy    (eV) =       1.359548          1.354272
       Potential energy  (eV) =   -1540.600836      -1541.024248
       Total energy      (eV) =   -1539.241288      -1539.669976
       Temperature       (K)  =     300.512120        299.345946
       Pressure         (GPa) =      -1.430759         -0.618356
       Cell parameter : a (A) =       9.182692          9.194729
       Cell parameter : b (A) =       9.176768          9.188549
       Cell parameter : c (A) =       9.187927          9.199269
       Cell angle : alpha (o) =      94.753539         94.766828
       Cell angle : beta  (o) =      94.755024         94.773746
       Cell angle : gamma (o) =      94.706157         94.735411
       Cell volume :   (A**3) =     765.836351        768.698082
  ** Time :            0.25500 ps :
     Properties:                   Instantaneous       Averaged
       Kinetic energy    (eV) =       1.357926          1.354344
       Potential energy  (eV) =   -1540.643638      -1541.016785
       Total energy      (eV) =   -1539.285712      -1539.662441
       Temperature       (K)  =     300.153524        299.361781
       Pressure         (GPa) =      -0.679251         -0.619704
       Cell parameter : a (A) =       9.181840          9.194476
       Cell parameter : b (A) =       9.176155          9.188306
       Cell parameter : c (A) =       9.187165          9.199031
       Cell angle : alpha (o) =      94.758593         94.766667
       Cell angle : beta  (o) =      94.756344         94.773405
       Cell angle : gamma (o) =      94.707064         94.734855
       Cell volume :   (A**3) =     765.641846        768.638156
  ** Time :            0.26000 ps :
     Properties:                   Instantaneous       Averaged
       Kinetic energy    (eV) =       1.360100          1.354455
       Potential energy  (eV) =   -1540.692999      -1541.010559
       Total energy      (eV) =   -1539.332899      -1539.656104
       Temperature       (K)  =     300.634096        299.386249
       Pressure         (GPa) =       0.046781         -0.606935
       Cell parameter : a (A) =       9.181699          9.194230
       Cell parameter : b (A) =       9.175720          9.188064
       Cell parameter : c (A) =       9.187122          9.198802
       Cell angle : alpha (o) =      94.763542         94.766607
       Cell angle : beta  (o) =      94.759879         94.773145
       Cell angle : gamma (o) =      94.705950         94.734299
       Cell volume :   (A**3) =     765.581173        768.579367
  ** Time :            0.26500 ps :
     Properties:                   Instantaneous       Averaged
       Kinetic energy    (eV) =       1.369270          1.354734
       Potential energy  (eV) =   -1540.860479      -1541.007727
       Total energy      (eV) =   -1539.491209      -1539.652993
       Temperature       (K)  =     302.660968        299.448036
       Pressure         (GPa) =       0.603944         -0.584045
       Cell parameter : a (A) =       9.182133          9.194002
       Cell parameter : b (A) =       9.175619          9.187829
       Cell parameter : c (A) =       9.187551          9.198590
       Cell angle : alpha (o) =      94.766701         94.766609
       Cell angle : beta  (o) =      94.764397         94.772980
       Cell angle : gamma (o) =      94.704626         94.733739
       Cell volume :   (A**3) =     765.636919        768.523850
  ** Time :            0.27000 ps :
     Properties:                   Instantaneous       Averaged
       Kinetic energy    (eV) =       1.367085          1.354963
       Potential energy  (eV) =   -1541.141022      -1541.010195
       Total energy      (eV) =   -1539.773937      -1539.655232
       Temperature       (K)  =     302.178040        299.498592
       Pressure         (GPa) =       0.926373         -0.555972
       Cell parameter : a (A) =       9.182858          9.193796
       Cell parameter : b (A) =       9.176023          9.187611
       Cell parameter : c (A) =       9.188122          9.198396
       Cell angle : alpha (o) =      94.767649         94.766628
       Cell angle : beta  (o) =      94.767647         94.772881
       Cell angle : gamma (o) =      94.705074         94.733208
       Cell volume :   (A**3) =     765.773013        768.472908
  ** Time :            0.27500 ps :
     Properties:                   Instantaneous       Averaged
       Kinetic energy    (eV) =       1.350723          1.354886
       Potential energy  (eV) =   -1541.188359      -1541.013435
       Total energy      (eV) =   -1539.837637      -1539.658549
       Temperature       (K)  =     298.561312        299.481550
       Pressure         (GPa) =       1.012041         -0.527339
       Cell parameter : a (A) =       9.183596          9.193610
       Cell parameter : b (A) =       9.176978          9.187417
       Cell parameter : c (A) =       9.188563          9.198217
       Cell angle : alpha (o) =      94.767091         94.766636
       Cell angle : beta  (o) =      94.768298         94.772798
       Cell angle : gamma (o) =      94.708059         94.732751
       Cell volume :   (A**3) =     765.947236        768.426987
  ** Time :            0.28000 ps :
     Properties:                   Instantaneous       Averaged
       Kinetic energy    (eV) =       1.352798          1.354849
       Potential energy  (eV) =   -1541.052842      -1541.014138
       Total energy      (eV) =   -1539.700044      -1539.659290
       Temperature       (K)  =     299.020066        299.473309
       Pressure         (GPa) =       0.842465         -0.502763
       Cell parameter : a (A) =       9.184151          9.193441
       Cell parameter : b (A) =       9.178316          9.187255
       Cell parameter : c (A) =       9.188743          9.198048
       Cell angle : alpha (o) =      94.766138         94.766627
       Cell angle : beta  (o) =      94.766831         94.772691
       Cell angle : gamma (o) =      94.713195         94.732402
       Cell volume :   (A**3) =     766.116981        768.385737
  ** Time :            0.28500 ps :
     Properties:                   Instantaneous       Averaged
       Kinetic energy    (eV) =       1.366517          1.355053
       Potential energy  (eV) =   -1541.147532      -1541.016479
       Total energy      (eV) =   -1539.781014      -1539.661425
       Temperature       (K)  =     302.052587        299.518560
       Pressure         (GPa) =       0.435267         -0.486230
       Cell parameter : a (A) =       9.184402          9.193283
       Cell parameter : b (A) =       9.179600          9.187121
       Cell parameter : c (A) =       9.188688          9.197884
       Cell angle : alpha (o) =      94.765930         94.766615
       Cell angle : beta  (o) =      94.765215         94.772560
       Cell angle : gamma (o) =      94.718595         94.732160
       Cell volume :   (A**3) =     766.236143        768.348025
  ** Time :            0.29000 ps :
     Properties:                   Instantaneous       Averaged
       Kinetic energy    (eV) =       1.357415          1.355094
       Potential energy  (eV) =   -1541.295297      -1541.021286
       Total energy      (eV) =   -1539.937882      -1539.666192
       Temperature       (K)  =     300.040531        299.527559
       Pressure         (GPa) =      -0.021069         -0.478185
       Cell parameter : a (A) =       9.184377          9.193129
       Cell parameter : b (A) =       9.180323          9.187003
       Cell parameter : c (A) =       9.188542          9.197723
       Cell angle : alpha (o) =      94.767204         94.766625
       Cell angle : beta  (o) =      94.765805         94.772443
       Cell angle : gamma (o) =      94.721716         94.731980
       Cell volume :   (A**3) =     766.276201        768.312303
  ** Time :            0.29500 ps :
     Properties:                   Instantaneous       Averaged
       Kinetic energy    (eV) =       1.345053          1.354924
       Potential energy  (eV) =   -1541.163698      -1541.023700
       Total energy      (eV) =   -1539.818645      -1539.668776
       Temperature       (K)  =     297.308135        299.489942
       Pressure         (GPa) =      -0.413621         -0.477113
       Cell parameter : a (A) =       9.184241          9.192978
       Cell parameter : b (A) =       9.180281          9.186890
       Cell parameter : c (A) =       9.188392          9.197565
       Cell angle : alpha (o) =      94.769949         94.766682
       Cell angle : beta  (o) =      94.769793         94.772398
       Cell angle : gamma (o) =      94.721951         94.731810
       Cell volume :   (A**3) =     766.240324        768.277185
  ** Time :            0.30000 ps :
     Properties:                   Instantaneous       Averaged
       Kinetic energy    (eV) =       1.356565          1.354951
       Potential energy  (eV) =   -1541.021800      -1541.023668
       Total energy      (eV) =   -1539.665235      -1539.668717
       Temperature       (K)  =     299.852795        299.495990
       Pressure         (GPa) =      -0.767792         -0.482020
       Cell parameter : a (A) =       9.184122          9.192831
       Cell parameter : b (A) =       9.179583          9.186768
       Cell parameter : c (A) =       9.188122          9.197407
       Cell angle : alpha (o) =      94.773262         94.766791
       Cell angle : beta  (o) =      94.776395         94.772465
       Cell angle : gamma (o) =      94.721210         94.731633
       Cell volume :   (A**3) =     766.138317        768.241537
  ** Time :            0.30500 ps :
     Properties:                   Instantaneous       Averaged
       Kinetic energy    (eV) =       1.366054          1.355133
       Potential energy  (eV) =   -1541.170220      -1541.026070
       Total energy      (eV) =   -1539.804167      -1539.670937
       Temperature       (K)  =     301.950092        299.536221
       Pressure         (GPa) =      -1.037906         -0.491231
       Cell parameter : a (A) =       9.183978          9.192686
       Cell parameter : b (A) =       9.178563          9.186633
       Cell parameter : c (A) =       9.187507          9.197245
       Cell angle : alpha (o) =      94.775495         94.766934
       Cell angle : beta  (o) =      94.782765         94.772634
       Cell angle : gamma (o) =      94.721748         94.731471
       Cell volume :   (A**3) =     765.978676        768.204441
  ** Time :            0.31000 ps :
     Properties:                   Instantaneous       Averaged
       Kinetic energy    (eV) =       1.354181          1.355118
       Potential energy  (eV) =   -1541.263478      -1541.029900
       Total energy      (eV) =   -1539.909297      -1539.674782
       Temperature       (K)  =     299.325759        299.532826
       Pressure         (GPa) =      -1.120628         -0.501505
       Cell parameter : a (A) =       9.183671          9.192540
       Cell parameter : b (A) =       9.177631          9.186488
       Cell parameter : c (A) =       9.186508          9.197072
       Cell angle : alpha (o) =      94.775577         94.767073
       Cell angle : beta  (o) =      94.785945         94.772849
       Cell angle : gamma (o) =      94.724011         94.731351
       Cell volume :   (A**3) =     765.785272        768.165422
  ** Time :            0.31500 ps :
     Properties:                   Instantaneous       Averaged
       Kinetic energy    (eV) =       1.346822          1.354986
       Potential energy  (eV) =   -1541.123350      -1541.031383
       Total energy      (eV) =   -1539.776528      -1539.676397
       Temperature       (K)  =     297.699125        299.503720
       Pressure         (GPa) =      -0.996795         -0.509490
       Cell parameter : a (A) =       9.183133          9.192391
       Cell parameter : b (A) =       9.177051          9.186338
       Cell parameter : c (A) =       9.185342          9.196886
       Cell angle : alpha (o) =      94.773950         94.767183
       Cell angle : beta  (o) =      94.785517         94.773050
       Cell angle : gamma (o) =      94.726867         94.731279
       Cell volume :   (A**3) =     765.593891        768.124604
  ** Time :            0.32000 ps :
     Properties:                   Instantaneous       Averaged
       Kinetic energy    (eV) =       1.351407          1.354930
       Potential energy  (eV) =   -1540.972861      -1541.030468
       Total energy      (eV) =   -1539.621454      -1539.675538
       Temperature       (K)  =     298.712573        299.491358
       Pressure         (GPa) =      -0.665475         -0.512028
       Cell parameter : a (A) =       9.182445          9.192236
       Cell parameter : b (A) =       9.176853          9.186190
       Cell parameter : c (A) =       9.184351          9.196690
       Cell angle : alpha (o) =      94.771927         94.767257
       Cell angle : beta  (o) =      94.783374         94.773211
       Cell angle : gamma (o) =      94.728162         94.731231
       Cell volume :   (A**3) =     765.440928        768.082672
  ** Time :            0.32500 ps :
     Properties:                   Instantaneous       Averaged
       Kinetic energy    (eV) =       1.358051          1.354978
       Potential energy  (eV) =   -1540.943319      -1541.029128
       Total energy      (eV) =   -1539.585268      -1539.674149
       Temperature       (K)  =     300.181182        299.501971
       Pressure         (GPa) =      -0.174080         -0.506881
       Cell parameter : a (A) =       9.181854          9.192076
       Cell parameter : b (A) =       9.176908          9.186047
       Cell parameter : c (A) =       9.183857          9.196492
       Cell angle : alpha (o) =      94.770580         94.767308
       Cell angle : beta  (o) =      94.781924         94.773345
       Cell angle : gamma (o) =      94.726063         94.731151
       Cell volume :   (A**3) =     765.361133        768.040802
  ** Time :            0.33000 ps :
     Properties:                   Instantaneous       Averaged
       Kinetic energy    (eV) =       1.363427          1.355106
       Potential energy  (eV) =   -1541.043946      -1541.029352
       Total energy      (eV) =   -1539.680519      -1539.674246
       Temperature       (K)  =     301.369387        299.530265
       Pressure         (GPa) =       0.284141         -0.494891
       Cell parameter : a (A) =       9.181630          9.191918
       Cell parameter : b (A) =       9.177048          9.185911
       Cell parameter : c (A) =       9.183960          9.196303
       Cell angle : alpha (o) =      94.769893         94.767347
       Cell angle : beta  (o) =      94.782277         94.773480
       Cell angle : gamma (o) =      94.721313         94.731002
       Cell volume :   (A**3) =     765.368913        768.000319
  ** Time :            0.33500 ps :
     Properties:                   Instantaneous       Averaged
       Kinetic energy    (eV) =       1.359221          1.355168
       Potential energy  (eV) =   -1541.163035      -1541.031347
       Total energy      (eV) =   -1539.803814      -1539.676180
       Temperature       (K)  =     300.439695        299.543839
       Pressure         (GPa) =       0.567977         -0.478979
       Cell parameter : a (A) =       9.181888          9.191768
       Cell parameter : b (A) =       9.177158          9.185780
       Cell parameter : c (A) =       9.184441          9.196126
       Cell angle : alpha (o) =      94.769272         94.767376
       Cell angle : beta  (o) =      94.783637         94.773632
       Cell angle : gamma (o) =      94.716909         94.730792
       Cell volume :   (A**3) =     765.444148        767.962167
  ** Time :            0.34000 ps :
     Properties:                   Instantaneous       Averaged
       Kinetic energy    (eV) =       1.348334          1.355067
       Potential energy  (eV) =   -1541.108419      -1541.032481
       Total energy      (eV) =   -1539.760085      -1539.677414
       Temperature       (K)  =     298.033300        299.521625
       Pressure         (GPa) =       0.754690         -0.460766
       Cell parameter : a (A) =       9.182579          9.191633
       Cell parameter : b (A) =       9.177283          9.185655
       Cell parameter : c (A) =       9.184980          9.195962
       Cell angle : alpha (o) =      94.768055         94.767386
       Cell angle : beta  (o) =      94.784172         94.773787
       Cell angle : gamma (o) =      94.715194         94.730562
       Cell volume :   (A**3) =     765.559898        767.926840
  ** Time :            0.34500 ps :
     Properties:                   Instantaneous       Averaged
       Kinetic energy    (eV) =       1.351622          1.355017
       Potential energy  (eV) =   -1540.940154      -1541.031143
       Total energy      (eV) =   -1539.588532      -1539.676126
       Temperature       (K)  =     298.760014        299.510587
       Pressure         (GPa) =       0.919668         -0.440672
       Cell parameter : a (A) =       9.183566          9.191516
       Cell parameter : b (A) =       9.177596          9.185539
       Cell parameter : c (A) =       9.185400          9.195809
       Cell angle : alpha (o) =      94.765584         94.767360
       Cell angle : beta  (o) =      94.782557         94.773914
       Cell angle : gamma (o) =      94.716252         94.730355
       Cell volume :   (A**3) =     765.707177        767.894671
  ** Time :            0.35000 ps :
     Properties:                   Instantaneous       Averaged
       Kinetic energy    (eV) =       1.370803          1.355243
       Potential energy  (eV) =   -1541.057775      -1541.031523
       Total energy      (eV) =   -1539.686972      -1539.676281
       Temperature       (K)  =     302.999862        299.560434
       Pressure         (GPa) =       0.967802         -0.420455
       Cell parameter : a (A) =       9.184619          9.191417
       Cell parameter : b (A) =       9.178224          9.185434
       Cell parameter : c (A) =       9.185692          9.195664
       Cell angle : alpha (o) =      94.762274         94.767287
       Cell angle : beta  (o) =      94.779205         94.773990
       Cell angle : gamma (o) =      94.718957         94.730192
       Cell volume :   (A**3) =     765.876434        767.865839
  ** Time :            0.35500 ps :
     Properties:                   Instantaneous       Averaged
       Kinetic energy    (eV) =       1.365336          1.355385
       Potential energy  (eV) =   -1541.345809      -1541.035950
       Total energy      (eV) =   -1539.980473      -1539.680565
       Temperature       (K)  =     301.791360        299.591855
       Pressure         (GPa) =       0.846175         -0.402526
       Cell parameter : a (A) =       9.185462          9.191333
       Cell parameter : b (A) =       9.179060          9.185344
       Cell parameter : c (A) =       9.185929          9.195527
       Cell angle : alpha (o) =      94.759662         94.767180
       Cell angle : beta  (o) =      94.775759         94.774015
       Cell angle : gamma (o) =      94.722069         94.730078
       Cell volume :   (A**3) =     766.040010        767.840123
  ** Time :            0.36000 ps :
     Properties:                   Instantaneous       Averaged
       Kinetic energy    (eV) =       1.348958          1.355296
       Potential energy  (eV) =   -1541.343919      -1541.040227
       Total energy      (eV) =   -1539.994961      -1539.684932
       Temperature       (K)  =     298.171270        299.572125
       Pressure         (GPa) =       0.630337         -0.388112
       Cell parameter : a (A) =       9.185975          9.191259
       Cell parameter : b (A) =       9.179882          9.185268
       Cell parameter : c (A) =       9.186183          9.195397
       Cell angle : alpha (o) =      94.758458         94.767058
       Cell angle : beta  (o) =      94.773204         94.774003
       Cell angle : gamma (o) =      94.724756         94.730004
       Cell volume :   (A**3) =     766.173817        767.816980
  ** Time :            0.36500 ps :
     Properties:                   Instantaneous       Averaged
       Kinetic energy    (eV) =       1.351424          1.355243
       Potential energy  (eV) =   -1541.184639      -1541.042205
       Total energy      (eV) =   -1539.833215      -1539.686963
       Temperature       (K)  =     298.716273        299.560401
       Pressure         (GPa) =       0.308093         -0.378531
       Cell parameter : a (A) =       9.186192          9.191190
       Cell parameter : b (A) =       9.180504          9.185203
       Cell parameter : c (A) =       9.186405          9.195274
       Cell angle : alpha (o) =      94.758311         94.766939
       Cell angle : beta  (o) =      94.771603         94.773970
       Cell angle : gamma (o) =      94.727044         94.729963
       Cell volume :   (A**3) =     766.261815        767.795676
  ** Time :            0.37000 ps :
     Properties:                   Instantaneous       Averaged
       Kinetic energy    (eV) =       1.361164          1.355323
       Potential energy  (eV) =   -1541.203302      -1541.044382
       Total energy      (eV) =   -1539.842138      -1539.689060
       Temperature       (K)  =     300.869247        299.578088
       Pressure         (GPa) =      -0.126540         -0.375115
       Cell parameter : a (A) =       9.186200          9.191122
       Cell parameter : b (A) =       9.180816          9.185144
       Cell parameter : c (A) =       9.186369          9.195154
       Cell angle : alpha (o) =      94.758802         94.766829
       Cell angle : beta  (o) =      94.770483         94.773923
       Cell angle : gamma (o) =      94.730130         94.729966
       Cell volume :   (A**3) =     766.282501        767.775228
  ** Time :            0.37500 ps :
     Properties:                   Instantaneous       Averaged
       Kinetic energy    (eV) =       1.354795          1.355316
       Potential energy  (eV) =   -1541.258916      -1541.047243
       Total energy      (eV) =   -1539.904121      -1539.691927
       Temperature       (K)  =     299.461470        299.576533
       Pressure         (GPa) =      -0.492524         -0.376707
       Cell parameter : a (A) =       9.186096          9.191055
       Cell parameter : b (A) =       9.180814          9.185086
       Cell parameter : c (A) =       9.185889          9.195030
       Cell angle : alpha (o) =      94.759561         94.766732
       Cell angle : beta  (o) =      94.769138         94.773859
       Cell angle : gamma (o) =      94.735212         94.730036
       Cell volume :   (A**3) =     766.228210        767.754601
  ** Time :            0.38000 ps :
     Properties:                   Instantaneous       Averaged
       Kinetic energy    (eV) =       1.346074          1.355194
       Potential energy  (eV) =   -1541.124785      -1541.048263
       Total energy      (eV) =   -1539.778711      -1539.693069
       Temperature       (K)  =     297.533853        299.549656
       Pressure         (GPa) =      -0.623560         -0.380004
       Cell parameter : a (A) =       9.185979          9.190988
       Cell parameter : b (A) =       9.180576          9.185027
       Cell parameter : c (A) =       9.185110          9.194900
       Cell angle : alpha (o) =      94.760213         94.766646
       Cell angle : beta  (o) =      94.767623         94.773777
       Cell angle : gamma (o) =      94.741620         94.730188
       Cell volume :   (A**3) =     766.126766        767.733182
  ** Time :            0.38500 ps :
[...]
  ** Time :            0.90000 ps :
     Properties:                   Instantaneous       Averaged
       Kinetic energy    (eV) =       1.318162          1.362639
       Potential energy  (eV) =   -1539.376061      -1538.705611
       Total energy      (eV) =   -1538.057898      -1537.342972
       Temperature       (K)  =     291.364203        301.195202
       Pressure         (GPa) =       1.337885          0.019885
       Cell parameter : a (A) =       9.232195          9.159891
       Cell parameter : b (A) =       8.978546          9.105653
       Cell parameter : c (A) =       8.984281          9.135745
       Cell angle : alpha (o) =      90.366957         94.522578
       Cell angle : beta  (o) =      98.441704         95.552767
       Cell angle : gamma (o) =      94.808387         94.308737
       Cell volume :   (A**3) =     733.928806        746.995184
  ** Time :            0.90500 ps :
     Properties:                   Instantaneous       Averaged
       Kinetic energy    (eV) =       1.376737          1.362716
       Potential energy  (eV) =   -1539.561776      -1538.710341
       Total energy      (eV) =   -1538.185039      -1537.347624
       Temperature       (K)  =     304.311484        301.212419
       Pressure         (GPa) =       0.946827          0.024843
       Cell parameter : a (A) =       9.226613          9.160259
       Cell parameter : b (A) =       9.011096          9.105130
       Cell parameter : c (A) =       9.014270          9.135074
       Cell angle : alpha (o) =      91.284338         94.504687
       Cell angle : beta  (o) =      97.897295         95.565720
       Cell angle : gamma (o) =      94.125537         94.307725
       Cell volume :   (A**3) =     740.036085        746.956736
  ** Time :            0.91000 ps :
     Properties:                   Instantaneous       Averaged
       Kinetic energy    (eV) =       1.448119          1.363186
       Potential energy  (eV) =   -1539.708078      -1538.715823
       Total energy      (eV) =   -1538.259959      -1537.352637
       Temperature       (K)  =     320.089661        301.316140
       Pressure         (GPa) =       0.201829          0.025562
       Cell parameter : a (A) =       9.222261          9.160600
       Cell parameter : b (A) =       9.049708          9.104826
       Cell parameter : c (A) =       9.059213          9.134657
       Cell angle : alpha (o) =      92.255977         94.492331
       Cell angle : beta  (o) =      97.329310         95.575410
       Cell angle : gamma (o) =      93.412457         94.302806
       Cell volume :   (A**3) =     747.721152        746.960936
  ** Time :            0.91500 ps :
     Properties:                   Instantaneous       Averaged
       Kinetic energy    (eV) =       1.453563          1.363680
       Potential energy  (eV) =   -1539.753930      -1538.721496
       Total energy      (eV) =   -1538.300368      -1537.357816
       Temperature       (K)  =     321.292904        301.425303
       Pressure         (GPa) =      -0.675495          0.021459
       Cell parameter : a (A) =       9.215768          9.160902
       Cell parameter : b (A) =       9.090254          9.104746
       Cell parameter : c (A) =       9.112795          9.134538
       Cell angle : alpha (o) =      93.261392         94.485605
       Cell angle : beta  (o) =      96.730216         95.581721
       Cell angle : gamma (o) =      92.702682         94.294062
       Cell volume :   (A**3) =     755.807733        747.009279
  ** Time :            0.92000 ps :
     Properties:                   Instantaneous       Averaged
       Kinetic energy    (eV) =       1.423795          1.364006
       Potential energy  (eV) =   -1539.674318      -1538.726674
       Total energy      (eV) =   -1538.250522      -1537.362668
       Temperature       (K)  =     314.713116        301.497519
       Pressure         (GPa) =      -1.424547          0.013404
       Cell parameter : a (A) =       9.202867          9.161130
       Cell parameter : b (A) =       9.127509          9.104870
       Cell parameter : c (A) =       9.167200          9.134715
       Cell angle : alpha (o) =      94.281014         94.484493
       Cell angle : beta  (o) =      96.090342         95.584485
       Cell angle : gamma (o) =      92.036221         94.281791
       Cell volume :   (A**3) =     762.821974        747.095218
  ** Time :            0.92500 ps :
     Properties:                   Instantaneous       Averaged
       Kinetic energy    (eV) =       1.407767          1.364243
       Potential energy  (eV) =   -1539.486007      -1538.730779
       Total energy      (eV) =   -1538.078240      -1537.366536
       Temperature       (K)  =     311.170316        301.549804
       Pressure         (GPa) =      -1.840433          0.003303
       Cell parameter : a (A) =       9.179970          9.161232
       Cell parameter : b (A) =       9.156977          9.105151
       Cell parameter : c (A) =       9.215014          9.135149
       Cell angle : alpha (o) =      95.298890         94.488895
       Cell angle : beta  (o) =      95.402351         95.583500
       Cell angle : gamma (o) =      91.456645         94.266520
       Cell volume :   (A**3) =     767.429865        747.205135
  ** Time :            0.93000 ps :
     Properties:                   Instantaneous       Averaged
       Kinetic energy    (eV) =       1.412637          1.364503
       Potential energy  (eV) =   -1539.220480      -1538.733411
       Total energy      (eV) =   -1537.807843      -1537.368908
       Temperature       (K)  =     312.246787        301.607315
       Pressure         (GPa) =      -1.833910         -0.006580
       Cell parameter : a (A) =       9.145543          9.161147
       Cell parameter : b (A) =       9.176341          9.105534
       Cell parameter : c (A) =       9.251012          9.135772
       Cell angle : alpha (o) =      96.303316         94.498650
       Cell angle : beta  (o) =      94.663876         95.578556
       Cell angle : gamma (o) =      91.004559         94.248983
       Cell volume :   (A**3) =     768.846218        747.321485
  ** Time :            0.93500 ps :
     Properties:                   Instantaneous       Averaged
       Kinetic energy    (eV) =       1.420274          1.364801
       Potential energy  (eV) =   -1538.893186      -1538.734266
       Total energy      (eV) =   -1537.472912      -1537.369465
       Temperature       (K)  =     313.934876        301.673238
       Pressure         (GPa) =      -1.440971         -0.014266
       Cell parameter : a (A) =       9.100785          9.160824
       Cell parameter : b (A) =       9.186070          9.105965
       Cell parameter : c (A) =       9.273217          9.136507
       Cell angle : alpha (o) =      97.285595         94.513554
       Cell angle : beta  (o) =      93.877617         95.569460
       Cell angle : gamma (o) =      90.710065         94.230058
       Cell volume :   (A**3) =     767.053475        747.427004
  ** Time :            0.94000 ps :
     Properties:                   Instantaneous       Averaged
       Kinetic energy    (eV) =       1.418619          1.365088
       Potential energy  (eV) =   -1538.497994      -1538.733009
       Total energy      (eV) =   -1537.079376      -1537.367922
       Temperature       (K)  =     313.568989        301.736513
       Pressure         (GPa) =      -0.797156         -0.018510
       Cell parameter : a (A) =       9.049414          9.160232
       Cell parameter : b (A) =       9.189074          9.106407
       Cell parameter : c (A) =       9.282892          9.137286
       Cell angle : alpha (o) =      98.237966         94.533364
       Cell angle : beta  (o) =      93.049903         95.556058
       Cell angle : gamma (o) =      90.587644         94.210683
       Cell volume :   (A**3) =     762.753598        747.508528
  ** Time :            0.94500 ps :
     Properties:                   Instantaneous       Averaged
       Kinetic energy    (eV) =       1.412360          1.365338
       Potential energy  (eV) =   -1538.032045      -1538.729300
       Total energy      (eV) =   -1536.619685      -1537.363963
       Temperature       (K)  =     312.185478        301.791799
       Pressure         (GPa) =      -0.094921         -0.019052
       Cell parameter : a (A) =       8.996677          9.159366
       Cell parameter : b (A) =       9.189643          9.106847
       Cell parameter : c (A) =       9.283602          9.138060
       Cell angle : alpha (o) =      99.152109         94.557802
       Cell angle : beta  (o) =      92.189251         95.538245
       Cell angle : gamma (o) =      90.635143         94.191765
       Cell volume :   (A**3) =     757.094709        747.559248
  ** Time :            0.95000 ps :
     Properties:                   Instantaneous       Averaged
       Kinetic energy    (eV) =       1.409217          1.365569
       Potential energy  (eV) =   -1537.517345      -1538.722922
       Total energy      (eV) =   -1536.108128      -1537.357353
       Temperature       (K)  =     311.490788        301.842846
       Pressure         (GPa) =       0.467831         -0.016636
       Cell parameter : a (A) =       8.947930          9.158254
       Cell parameter : b (A) =       9.192096          9.107296
       Cell parameter : c (A) =       9.279758          9.138806
       Cell angle : alpha (o) =     100.019081         94.586546
       Cell angle : beta  (o) =      91.305881         95.515969
       Cell angle : gamma (o) =      90.836462         94.174106
       Cell volume :   (A**3) =     751.293581        747.578903
  ** Time :            0.95500 ps :
     Properties:                   Instantaneous       Averaged
       Kinetic energy    (eV) =       1.406702          1.365784
       Potential energy  (eV) =   -1536.994332      -1538.713871
       Total energy      (eV) =   -1535.587630      -1537.348087
       Temperature       (K)  =     310.934865        301.890448
       Pressure         (GPa) =       0.745361         -0.012758
       Cell parameter : a (A) =       8.907238          9.156939
       Cell parameter : b (A) =       9.199543          9.107779
       Cell parameter : c (A) =       9.275118          9.139520
       Cell angle : alpha (o) =     100.830307         94.619235
       Cell angle : beta  (o) =      90.412171         95.489248
       Cell angle : gamma (o) =      91.166149         94.158357
       Cell volume :   (A**3) =     746.287322        747.572141
  ** Time :            0.96000 ps :
     Properties:                   Instantaneous       Averaged
       Kinetic energy    (eV) =       1.396396          1.365943
       Potential energy  (eV) =   -1536.501479      -1538.702349
       Total energy      (eV) =   -1535.105083      -1537.336405
       Temperature       (K)  =     308.656828        301.925690
       Pressure         (GPa) =       0.691204         -0.009156
       Cell parameter : a (A) =       8.876427          9.155478
       Cell parameter : b (A) =       9.213073          9.108327
       Cell parameter : c (A) =       9.271725          9.140208
       Cell angle : alpha (o) =     101.578528         94.655482
       Cell angle : beta  (o) =      89.523355         95.458175
       Cell angle : gamma (o) =      91.593952         94.145001
       Cell volume :   (A**3) =     742.514042        747.545796
  ** Time :            0.96500 ps :
     Properties:                   Instantaneous       Averaged
       Kinetic energy    (eV) =       1.374887          1.365990
       Potential energy  (eV) =   -1536.067782      -1538.688698
       Total energy      (eV) =   -1534.692895      -1537.322708
       Temperature       (K)  =     303.902586        301.935933
       Pressure         (GPa) =       0.370388         -0.007222
       Cell parameter : a (A) =       8.854852          9.153921
       Cell parameter : b (A) =       9.231573          9.108966
       Cell parameter : c (A) =       9.269538          9.140878
       Cell angle : alpha (o) =     102.257873         94.694872
       Cell angle : beta  (o) =      88.657670         95.422939
       Cell angle : gamma (o) =      92.088091         94.134343
       Cell volume :   (A**3) =     739.869116        747.506021
  ** Time :            0.97000 ps :
     Properties:                   Instantaneous       Averaged
       Kinetic energy    (eV) =       1.345631          1.365885
       Potential energy  (eV) =   -1535.722949      -1538.673411
       Total energy      (eV) =   -1534.377318      -1537.307526
       Temperature       (K)  =     297.435864        301.912737
       Pressure         (GPa) =      -0.072559         -0.007578
       Cell parameter : a (A) =       8.839911          9.152302
       Cell parameter : b (A) =       9.252161          9.109704
       Cell parameter : c (A) =       9.266796          9.141527
       Cell angle : alpha (o) =     102.863051         94.736976
       Cell angle : beta  (o) =      87.835546         95.383829
       Cell angle : gamma (o) =      92.617199         94.126523
       Cell volume :   (A**3) =     737.828125        747.456135
  ** Time :            0.97500 ps :
     Properties:                   Instantaneous       Averaged
       Kinetic energy    (eV) =       1.312594          1.365612
       Potential energy  (eV) =   -1535.506892      -1538.657172
       Total energy      (eV) =   -1534.194298      -1537.291560
       Temperature       (K)  =     290.133440        301.852330
       Pressure         (GPa) =      -0.470445         -0.009974
       Cell parameter : a (A) =       8.828078          9.150639
       Cell parameter : b (A) =       9.271086          9.110532
       Cell parameter : c (A) =       9.260906          9.142139
       Cell angle : alpha (o) =     103.388278         94.781342
       Cell angle : beta  (o) =      87.077915         95.341235
       Cell angle : gamma (o) =      93.151620         94.121523
       Cell volume :   (A**3) =     735.681586        747.395752
  ** Time :            0.98000 ps :
     Properties:                   Instantaneous       Averaged
       Kinetic energy    (eV) =       1.276135          1.365155
       Potential energy  (eV) =   -1535.462848      -1538.640874
       Total energy      (eV) =   -1534.186714      -1537.275719
       Temperature       (K)  =     282.074601        301.751423
       Pressure         (GPa) =      -0.687376         -0.013469
       Cell parameter : a (A) =       8.816102          9.148933
       Cell parameter : b (A) =       9.284807          9.111421
       Cell parameter : c (A) =       9.249483          9.142687
       Cell angle : alpha (o) =     103.826639         94.827492
       Cell angle : beta  (o) =      86.404084         95.295637
       Cell angle : gamma (o) =      93.664737         94.119193
       Cell volume :   (A**3) =     732.801703        747.321293
  ** Time :            0.98500 ps :
     Properties:                   Instantaneous       Averaged
       Kinetic energy    (eV) =       1.234838          1.364493
       Potential energy  (eV) =   -1535.617667      -1538.625528
       Total energy      (eV) =   -1534.382829      -1537.261035
       Temperature       (K)  =     272.946338        301.605204
       Pressure         (GPa) =      -0.653066         -0.016788
       Cell parameter : a (A) =       8.802008          9.147172
       Cell parameter : b (A) =       9.290929          9.112332
       Cell parameter : c (A) =       9.231233          9.143137
       Cell angle : alpha (o) =     104.170288         94.874917
       Cell angle : beta  (o) =      85.829759         95.247587
       Cell angle : gamma (o) =      94.134483         94.119271
       Cell volume :   (A**3) =     728.859543        747.227579
  ** Time :            0.99000 ps :
     Properties:                   Instantaneous       Averaged
       Kinetic energy    (eV) =       1.189245          1.363608
       Potential energy  (eV) =   -1535.964504      -1538.612089
       Total energy      (eV) =   -1534.775259      -1537.248480
       Temperature       (K)  =     262.868674        301.409565
       Pressure         (GPa) =      -0.375189         -0.018712
       Cell parameter : a (A) =       8.785641          9.145346
       Cell parameter : b (A) =       9.288743          9.113223
       Cell parameter : c (A) =       9.206416          9.143456
       Cell angle : alpha (o) =     104.411448         94.923081
       Cell angle : beta  (o) =      85.365718         95.197678
       Cell angle : gamma (o) =      94.544745         94.121419
       Cell volume :   (A**3) =     723.931171        747.109920
  ** Time :            0.99500 ps :
     Properties:                   Instantaneous       Averaged
       Kinetic energy    (eV) =       1.143620          1.362503
       Potential energy  (eV) =   -1536.459382      -1538.601271
       Total energy      (eV) =   -1535.315762      -1537.238768
       Temperature       (K)  =     252.783701        301.165214
       Pressure         (GPa) =       0.066818         -0.018424
       Cell parameter : a (A) =       8.768617          9.143453
       Cell parameter : b (A) =       9.279256          9.114057
       Cell parameter : c (A) =       9.176818          9.143624
       Cell angle : alpha (o) =     104.543911         94.971427
       Cell angle : beta  (o) =      85.017450         95.146522
       Cell angle : gamma (o) =      94.886231         94.125263
       Cell volume :   (A**3) =     718.468619        746.965994
  ** Time :            1.00000 ps :
     Properties:                   Instantaneous       Averaged
       Kinetic energy    (eV) =       1.105534          1.361218
       Potential energy  (eV) =   -1537.031580      -1538.593423
       Total energy      (eV) =   -1535.926046      -1537.232205
       Temperature       (K)  =     244.365312        300.881215
       Pressure         (GPa) =       0.543634         -0.015750
       Cell parameter : a (A) =       8.753753          9.141504
       Cell parameter : b (A) =       9.264744          9.114811
       Cell parameter : c (A) =       9.145234          9.143632
       Cell angle : alpha (o) =     104.564613         95.019393
       Cell angle : beta  (o) =      84.785887         95.094718
       Cell angle : gamma (o) =      95.156509         94.130419
       Cell volume :   (A**3) =     713.154799        746.796938

  Average number of iterations to optimise shell positions :  7.79

  Peak dynamic memory used =       2.09 MB 


  Timing analysis for GULP :

--------------------------------------------------------------------------------
  Task / Subroutine                                          Time (Seconds)
--------------------------------------------------------------------------------
  Calculation of reciprocal space energy and derivatives          7.7614
  Calculation of real space energy and derivatives              171.7754
  Calculation of three-body energy and derivatives                0.2357
  Calculation of matrix inversion                                 0.0105
  Symmetry generation of equivalent positions                     0.0005
  Molecular dynamics - update of geometry                         0.0749
  Molecular dynamics - predictor                                  0.0010
  Molecular dynamics - corrector                                  0.0129
  Molecular dynamics - velocity correction                        0.0056
  Global summation overhead                                       0.0090
--------------------------------------------------------------------------------
  Total CPU time                                                180.0927
--------------------------------------------------------------------------------


  Dump file written as example20.grs


  Job Finished at 10:07.19 23rd August     2023                               

