********************************************************************************
*                       GENERAL UTILITY LATTICE PROGRAM                        *
*                                 Julian Gale                                  *
*                       Curtin Institute for Computation                       *
*                    School of Molecular and Life Sciences                     *
*                    Curtin University, Western Australia                      *
********************************************************************************
* Version = 6.2.0 * Last modified =  22nd August 2023                          *
********************************************************************************
*  optimise     - perform optimisation run                                     *
*  bulk_noopt   - do not optimise during bulk calculation                      *
*  property     - calculate properties for final geometry                      *
*  defect       - perform defect calculation after bulk run                    *
*  regi_before  - output region 1 at start of defect calculation               *
********************************************************************************
* Example of defect transition state calc : Magnesium vacancy migration        *
********************************************************************************


  Job Started  at 09:58.44 23rd August     2023                               

  Number of CPUs =     1


  Total number of configurations input =      1

********************************************************************************
*  Input for Configuration =   1                                               *
********************************************************************************

  Formula = O4Mg4                                                       

  Number of irreducible atoms/shells =      12


  Total number atoms/shells =      12

  Dimensionality = 3               :  Bulk   



  Cartesian lattice vectors (Angstroms) :

        4.212000    0.000000    0.000000
        0.000000    4.212000    0.000000
        0.000000    0.000000    4.212000

  Cell parameters (Angstroms/Degrees):

  a =       4.2120    alpha =  90.0000
  b =       4.2120    beta  =  90.0000
  c =       4.2120    gamma =  90.0000

  Initial cell volume =          74.724856 Angs**3

  Temperature of configuration =   0.00     K 

  Pressure of configuration =         0.000 GPa 

  Fractional coordinates of asymmetric unit :

--------------------------------------------------------------------------------
   No.  Atomic       x           y          z         Charge      Occupancy
        Label      (Frac)      (Frac)     (Frac)        (e)         (Frac)  
--------------------------------------------------------------------------------
      1 O     c    0.500000    0.500000    0.500000     0.86902    1.000000    
      2 O     c    0.500000    0.000000    0.000000     0.86902    1.000000    
      3 O     c    0.000000    0.500000    0.000000     0.86902    1.000000    
      4 O     c    0.000000    0.000000    0.500000     0.86902    1.000000    
      5 Mg    c    0.000000    0.000000    0.000000     2.00000    1.000000    
      6 Mg    c    0.000000    0.500000    0.500000     2.00000    1.000000    
      7 Mg    c    0.500000    0.000000    0.500000     2.00000    1.000000    
      8 Mg    c    0.500000    0.500000    0.000000     2.00000    1.000000    
      9 O     s    0.500000    0.500000    0.500000    -2.86902    1.000000    
     10 O     s    0.500000    0.000000    0.000000    -2.86902    1.000000    
     11 O     s    0.000000    0.500000    0.000000    -2.86902    1.000000    
     12 O     s    0.000000    0.000000    0.500000    -2.86902    1.000000    
--------------------------------------------------------------------------------



********************************************************************************
*  General input information                                                   *
********************************************************************************

  Species output for all configurations : 

--------------------------------------------------------------------------------
  Species    Type    Atomic    Atomic    Charge       Radii (Angs)     Library
                     Number     Mass       (e)     Cova   Ionic  VDW   Symbol
--------------------------------------------------------------------------------
    O        Core        8      16.00   0.869020   0.730  0.000  1.360          
    Mg       Core       12      24.31   2.000000   1.100  0.000  1.640          
    O        Shell       8       0.00  -2.869020   0.730  0.000  1.360          
--------------------------------------------------------------------------------


  Lattice summation method               =    Ewald          (3-D)
                                         =    Parry          (2-D)
                                         =    Saunders et al (1-D)
  Accuracy factor for lattice sums       =   12.000


  Analytic derivatives to be used

  Time limit = Infinity

  Maximum range for interatomic potentials =    100000.000000 Angstroms

  General interatomic potentials :

--------------------------------------------------------------------------------
Atom  Types   Potential      Parameter       Value         Units   Cutoffs(Ang)
  1     2                                                            Min /  Max 
--------------------------------------------------------------------------------
Mg   c O    s Buckingham    Buckingham A     1280.0000    eV        0.000  5.000
                            Buckingham rho  0.30000000    Ang       
                            Buckingham C     0.0000000    eV*Ang^6  
--------------------------------------------------------------------------------
O    s O    s Buckingham    Buckingham A     1280.0000    eV        0.000  5.000
                            Buckingham rho  0.30000000    Ang       
                            Buckingham C     27.880000    eV*Ang^6  
--------------------------------------------------------------------------------
O    c O    s Spring (c-s)  Spring k 2       74.920000    eV*Ang^-2 0.000  0.800
                            Spring k 4       0.0000000    eV*Ang^-4 
--------------------------------------------------------------------------------

********************************************************************************
*  Output for configuration   1                                                *
********************************************************************************


  Components of energy : 

--------------------------------------------------------------------------------
  Interatomic potentials     =          28.18454413 eV    
  Monopole - monopole (real) =         -57.34563089 eV    
  Monopole - monopole (recip)=        -133.83771537 eV    
  Monopole - monopole (total)=        -191.18334626 eV    
--------------------------------------------------------------------------------
  Total lattice energy       =        -162.99880213 eV    
--------------------------------------------------------------------------------
  Total lattice energy       =          -15726.8927 kJ/(mole unit cells)
--------------------------------------------------------------------------------

  Born effective charge tensors : 

-------------------------------------------------------------------------------
  Atom             x           y             z
-------------------------------------------------------------------------------
    1 O     x      -2.0071     -0.0000      0.0000
            y      -0.0000     -2.0071      0.0000
            z       0.0000      0.0000     -2.0071
-------------------------------------------------------------------------------
    2 O     x      -2.0071     -0.0000      0.0000
            y      -0.0000     -2.0071     -0.0000
            z       0.0000     -0.0000     -2.0071
-------------------------------------------------------------------------------
    3 O     x      -2.0071     -0.0000     -0.0000
            y      -0.0000     -2.0071      0.0000
            z      -0.0000      0.0000     -2.0071
-------------------------------------------------------------------------------
    4 O     x      -2.0071     -0.0000     -0.0000
            y      -0.0000     -2.0071     -0.0000
            z      -0.0000     -0.0000     -2.0071
-------------------------------------------------------------------------------
    5 Mg    x       2.0071      0.0000     -0.0000
            y       0.0000      2.0071     -0.0000
            z      -0.0000     -0.0000      2.0071
-------------------------------------------------------------------------------
    6 Mg    x       2.0071      0.0000     -0.0000
            y       0.0000      2.0071      0.0000
            z      -0.0000      0.0000      2.0071
-------------------------------------------------------------------------------
    7 Mg    x       2.0071      0.0000      0.0000
            y       0.0000      2.0071     -0.0000
            z       0.0000     -0.0000      2.0071
-------------------------------------------------------------------------------
    8 Mg    x       2.0071      0.0000      0.0000
            y       0.0000      2.0071      0.0000
            z       0.0000      0.0000      2.0071
-------------------------------------------------------------------------------




  Elastic Constant Matrix: (Units=GPa)

-------------------------------------------------------------------------------
  Indices      1         2         3         4         5         6    
-------------------------------------------------------------------------------
       1    401.5289  192.7222  192.7222   -0.0000    0.0000    0.0000
       2    192.7222  401.5289  192.7222    0.0000    0.0000    0.0000
       3    192.7222  192.7222  401.5289    0.0000    0.0000   -0.0000
       4     -0.0000    0.0000    0.0000  183.1294   -0.0000   -0.0000
       5      0.0000    0.0000    0.0000   -0.0000  183.1294    0.0000
       6      0.0000    0.0000   -0.0000   -0.0000    0.0000  183.1294
-------------------------------------------------------------------------------


  Elastic Compliance Matrix: (Units=1/GPa)

-------------------------------------------------------------------------------
  Indices      1         2         3         4         5         6    
-------------------------------------------------------------------------------
       1    0.003616 -0.001173 -0.001173  0.000000 -0.000000 -0.000000
       2   -0.001173  0.003616 -0.001173 -0.000000  0.000000 -0.000000
       3   -0.001173 -0.001173  0.003616 -0.000000 -0.000000  0.000000
       4    0.000000 -0.000000 -0.000000  0.005461  0.000000  0.000000
       5   -0.000000  0.000000 -0.000000  0.000000  0.005461 -0.000000
       6   -0.000000 -0.000000  0.000000  0.000000 -0.000000  0.005461
-------------------------------------------------------------------------------

  Mechanical properties :

-------------------------------------------------------------------------------
  Convention :                    Reuss         Voigt         Hill
-------------------------------------------------------------------------------
  Bulk  Modulus (GPa)     =     262.32443     262.32443     262.32443
  Shear Modulus (GPa)     =     140.69316     151.63897     146.16606
-------------------------------------------------------------------------------
  Velocity S-wave (km/s)  =       6.26621       6.50539       6.38692
  Velocity P-wave (km/s)  =      11.20556      11.38585      11.29607
-------------------------------------------------------------------------------
  Compressibility (1/GPa) =    0.00381207
-------------------------------------------------------------------------------
  Stress axis :                     x             y             z
-------------------------------------------------------------------------------
  Youngs Moduli (GPa)     =     276.52509     276.52509     276.52509
-------------------------------------------------------------------------------
  Poissons Ratio (x)      =                     0.32431       0.32431
  Poissons Ratio (y)      =       0.32431                     0.32431
  Poissons Ratio (z)      =       0.32431       0.32431
-------------------------------------------------------------------------------


  Piezoelectric Strain Matrix: (Units=C/m**2)

-------------------------------------------------------------------------------
  Indices      1         2         3         4         5         6    
-------------------------------------------------------------------------------
       x    -0.00000   0.00000   0.00000   0.00000  -0.00000  -0.00000
       y    -0.00000   0.00000   0.00000  -0.00000   0.00000   0.00000
       z    -0.00000  -0.00000   0.00000   0.00000   0.00000   0.00000
-------------------------------------------------------------------------------


  Piezoelectric Stress Matrix: (Units=10**-11 C/N)

-------------------------------------------------------------------------------
  Indices      1         2         3         4         5         6    
-------------------------------------------------------------------------------
       x    -0.00000   0.00000   0.00000   0.00000  -0.00000  -0.00000
       y    -0.00000   0.00000  -0.00000  -0.00000   0.00000   0.00000
       z    -0.00000  -0.00000   0.00000   0.00000   0.00000   0.00000
-------------------------------------------------------------------------------


  Static dielectric constant tensor : 

-------------------------------------------------------------------------------
              x         y         z
-------------------------------------------------------------------------------
       x     9.35941   0.00000  -0.00000
       y     0.00000   9.35941   0.00000
       z    -0.00000   0.00000   9.35941
--------------------------------------------------------------------------------

  High frequency dielectric constant tensor : 

-------------------------------------------------------------------------------
              x         y         z
-------------------------------------------------------------------------------
       x     2.19527   0.00000  -0.00000
       y     0.00000   2.19527   0.00000
       z    -0.00000   0.00000   2.19527
-------------------------------------------------------------------------------

  Static refractive indices : 

-------------------------------------------------------------------------------
    1 =    3.05932      2 =    3.05932      3 =    3.05932
-------------------------------------------------------------------------------

  High frequency refractive indices : 

-------------------------------------------------------------------------------
    1 =    1.48165      2 =    1.48165      3 =    1.48165
-------------------------------------------------------------------------------


  Time to end of properties =       0.0034 seconds

********************************************************************************
*  Defect calculation for configuration   1 :                                  *
********************************************************************************

  Total number of defects =      3

  Total charge on defect  =  -2.00

  Defect centre is at   0.2500   0.2500   0.0000  Frac

  Region 1 radius =   4.0000      Number of ions =     53

  Number of symmetry inequivalent region 1 ions  =     21

  Region 2 radius =  10.0000      Number of ions =    648

  Number of symmetry inequivalent region 2a ions =    205

  Region 2a mode = 4 : screened electrostatics due to region 1 
                       neglect correction to region 1 forces from 2a
                       region 2a displacements based on defects only

  Region 2a ions will only interact with defects in region 1

  Vacancies:

--------------------------------------------------------------------------------
    Specification type     Symbol/Number         x          y          z
--------------------------------------------------------------------------------
    Fractional                               0.000000   0.000000   0.000000
    Fractional                               0.500000   0.500000   0.000000
--------------------------------------------------------------------------------

  Interstitials:

--------------------------------------------------------------------------------
    Specification type     Symbol/Number         x          y          z
--------------------------------------------------------------------------------
    Atom/Fractional         Mg               0.200000   0.300000   0.000000
--------------------------------------------------------------------------------


  Region 1 (Absolute coordinates) :

--------------------------------------------------------------------------------
   No.   Atomic       x            y             z         Charge   Occupancy
         Label      (Angs)       (Angs)        (Angs)        (e)    
--------------------------------------------------------------------------------
     1  Mg    c      0.8424       1.2636       0.0000      2.00000   1.0000
     2  O     c      2.1060       0.0000       0.0000      0.86902   1.0000
     3  O     c      0.0000       2.1060       0.0000      0.86902   1.0000
     4  O     c      2.1060       2.1060      -2.1060      0.86902   1.0000
     5  O     c      2.1060       2.1060       2.1060      0.86902   1.0000
     6  O     c      0.0000       0.0000      -2.1060      0.86902   1.0000
     7  O     c      0.0000       0.0000       2.1060      0.86902   1.0000
     8  Mg    c      0.0000       2.1060      -2.1060      2.00000   1.0000
     9  Mg    c      0.0000       2.1060       2.1060      2.00000   1.0000
    10  Mg    c      2.1060       0.0000      -2.1060      2.00000   1.0000
    11  Mg    c      2.1060       0.0000       2.1060      2.00000   1.0000
    12  O     c      2.1060       4.2120       0.0000      0.86902   1.0000
    13  O     c     -2.1060       0.0000       0.0000      0.86902   1.0000
    14  O     c      0.0000      -2.1060       0.0000      0.86902   1.0000
    15  O     c      4.2120       2.1060       0.0000      0.86902   1.0000
    16  Mg    c      0.0000       4.2120       0.0000      2.00000   1.0000
    17  Mg    c     -2.1060       2.1060       0.0000      2.00000   1.0000
    18  Mg    c      2.1060      -2.1060       0.0000      2.00000   1.0000
    19  Mg    c      4.2120       0.0000       0.0000      2.00000   1.0000
    20  O     c      2.1060      -2.1060      -2.1060      0.86902   1.0000
    21  O     c      2.1060      -2.1060       2.1060      0.86902   1.0000
    22  O     c      4.2120       0.0000      -2.1060      0.86902   1.0000
    23  O     c      4.2120       0.0000       2.1060      0.86902   1.0000
    24  O     c      0.0000       4.2120      -2.1060      0.86902   1.0000
    25  O     c      0.0000       4.2120       2.1060      0.86902   1.0000
    26  O     c     -2.1060       2.1060      -2.1060      0.86902   1.0000
    27  O     c     -2.1060       2.1060       2.1060      0.86902   1.0000
    28  Mg    c      0.0000      -2.1060      -2.1060      2.00000   1.0000
    29  Mg    c      0.0000      -2.1060       2.1060      2.00000   1.0000
    30  Mg    c      4.2120       2.1060      -2.1060      2.00000   1.0000
    31  Mg    c      4.2120       2.1060       2.1060      2.00000   1.0000
    32  Mg    c      2.1060       4.2120      -2.1060      2.00000   1.0000
    33  Mg    c      2.1060       4.2120       2.1060      2.00000   1.0000
    34  Mg    c     -2.1060       0.0000      -2.1060      2.00000   1.0000
    35  Mg    c     -2.1060       0.0000       2.1060      2.00000   1.0000
    36  O     s      2.1060       0.0000       0.0000     -2.86902   1.0000
    37  O     s      0.0000       2.1060       0.0000     -2.86902   1.0000
    38  O     s      2.1060       2.1060      -2.1060     -2.86902   1.0000
    39  O     s      2.1060       2.1060       2.1060     -2.86902   1.0000
    40  O     s      0.0000       0.0000      -2.1060     -2.86902   1.0000
    41  O     s      0.0000       0.0000       2.1060     -2.86902   1.0000
    42  O     s      2.1060       4.2120       0.0000     -2.86902   1.0000
    43  O     s     -2.1060       0.0000       0.0000     -2.86902   1.0000
    44  O     s      0.0000      -2.1060       0.0000     -2.86902   1.0000
    45  O     s      4.2120       2.1060       0.0000     -2.86902   1.0000
    46  O     s      2.1060      -2.1060      -2.1060     -2.86902   1.0000
    47  O     s      2.1060      -2.1060       2.1060     -2.86902   1.0000
    48  O     s      4.2120       0.0000      -2.1060     -2.86902   1.0000
    49  O     s      4.2120       0.0000       2.1060     -2.86902   1.0000
    50  O     s      0.0000       4.2120      -2.1060     -2.86902   1.0000
    51  O     s      0.0000       4.2120       2.1060     -2.86902   1.0000
    52  O     s     -2.1060       2.1060      -2.1060     -2.86902   1.0000
    53  O     s     -2.1060       2.1060       2.1060     -2.86902   1.0000
------------------------------------------------------------------------------------



  Symmetry reduced region 1 (Relative to defect centre) :

--------------------------------------------------------------------------------
   No.   Atomic       x            y             z       Radius  Multiplicity   
         Label      (Angs)       (Angs)        (Angs)    (Angs)     
--------------------------------------------------------------------------------
     1  Mg    c     -0.2106 *     0.2106       0.0000    0.0000     1    Defect
     2  O     c      1.0530 *    -1.0530       0.0000    0.0000     1          
     3  O     c     -1.0530 *     1.0530       0.0000    0.0000     1          
     4  O     c      1.0530 *     1.0530 *    -2.1060 *  0.0000     4          
     5  Mg    c     -1.0530 *     1.0530      -2.1060 *  0.0000     2          
     6  Mg    c      1.0530 *    -1.0530      -2.1060 *  0.0000     2          
     7  O     c      1.0530 *     3.1590 *     0.0000    0.0000     2          
     8  O     c     -1.0530 *    -3.1590 *     0.0000    0.0000     2          
     9  Mg    c     -1.0530 *     3.1590 *     0.0000    0.0000     2          
    10  Mg    c      1.0530 *    -3.1590 *     0.0000    0.0000     2          
    11  O     c      1.0530 *    -3.1590 *    -2.1060 *  0.0000     4          
    12  O     c     -1.0530 *     3.1590 *    -2.1060 *  0.0000     4          
    13  Mg    c     -1.0530 *    -3.1590 *    -2.1060 *  0.0000     4          
    14  Mg    c      1.0530 *     3.1590 *    -2.1060 *  0.0000     4          
    15  O     s      1.0530 *    -1.0530       0.0000    0.0000     1          
    16  O     s     -1.0530 *     1.0530       0.0000    0.0000     1          
    17  O     s      1.0530 *     1.0530 *    -2.1060 *  0.0000     4          
    18  O     s      1.0530 *     3.1590 *     0.0000    0.0000     2          
    19  O     s     -1.0530 *    -3.1590 *     0.0000    0.0000     2          
    20  O     s      1.0530 *    -3.1590 *    -2.1060 *  0.0000     4          
    21  O     s     -1.0530 *     3.1590 *    -2.1060 *  0.0000     4          
--------------------------------------------------------------------------------


  Constraints on symmetry reduced coordinates :

--------------------------------------------------------------------------------
  Constraint no.      Unconstrained     Constrained    Coefficient    
                         Variable         Variable
--------------------------------------------------------------------------------
           1                 1 x             1 y        -1.00000
           2                 2 x             2 y        -1.00000
           3                 3 x             3 y        -1.00000
           4                 5 x             5 y        -1.00000
           5                 6 x             6 y        -1.00000
           6                15 x            15 y        -1.00000
           7                16 x            16 y        -1.00000
--------------------------------------------------------------------------------


  Components of defect energy : 

--------------------------------------------------------------------------------
  Region 1 - region 1                   =     49.01703588 eV
  Region 1 - region 2a (unrelaxed)      =      0.61256255 eV
  Region 1 - 2a (relaxed - correction)  =     -7.17572847 eV
  Region 1 (Total)                      =     42.45386995 eV
  Region 2a                             =      3.58724709 eV
  Region 2b                             =     -2.53878863 eV
--------------------------------------------------------------------------------
  Total defect energy                   =     43.50232842 eV
--------------------------------------------------------------------------------

  Largest displacement in region 2 =   0.0517 Angstroms


  Number of variables =       45

  Maximum number of calculations  =        1000
  Maximum Hessian update interval =          10
  Maximum step size               =   1.0000000
  Maximum parameter tolerance     =   0.0000100
  Maximum function  tolerance     =   0.0000100
  Maximum gradient  tolerance     =   0.0010000

  Symmetry adapted optimisation

  Symmetry to be used for second derivatives

  Newton-Raphson optimiser to be used

  BFGS hessian update to be used

  Lower half triangular hessian to be used

  Start of defect optimisation :

  Cycle:      0 Defect Energy:  43.502328  Gnorm:     2.591630  CPU:    0.015
  ** Hessian calculated **
  Cycle:      1 Defect Energy:  28.848076  Gnorm:     0.623628  CPU:    0.040
  ** Hessian calculated **
  Cycle:      2 Defect Energy:  26.842653  Gnorm:     0.088244  CPU:    0.061
  Cycle:      3 Defect Energy:  26.819802  Gnorm:     0.038611  CPU:    0.065
  Cycle:      4 Defect Energy:  26.819243  Gnorm:     0.010789  CPU:    0.068
  Cycle:      5 Defect Energy:  26.818182  Gnorm:     0.003721  CPU:    0.072
  Cycle:      6 Defect Energy:  26.817560  Gnorm:     0.000934  CPU:    0.076
  Cycle:      7 Defect Energy:  26.817283  Gnorm:     0.000212  CPU:    0.079
  Cycle:      8 Defect Energy:  26.817212  Gnorm:     0.000044  CPU:    0.083
  Cycle:      9 Defect Energy:  26.817196  Gnorm:     0.000009  CPU:    0.087


  **** Optimisation achieved ****


  Final defect energy  =       26.81719218
  Final defect Gnorm   =        0.00000181

  Components of defect energy : 

--------------------------------------------------------------------------------
  Region 1 - region 1                   =     29.36223082 eV
  Region 1 - region 2a (unrelaxed)      =      2.66847442 eV
  Region 1 - 2a (relaxed - correction)  =     -5.35171359 eV
  Region 1 (Total)                      =     26.67899165 eV
  Region 2a                             =      2.67551497 eV
  Region 2b                             =     -2.53731445 eV
--------------------------------------------------------------------------------
  Total defect energy                   =     26.81719218 eV
--------------------------------------------------------------------------------

  Largest displacement in region 2 =   0.0515 Angstroms

  Final coordinates of region 1 :

--------------------------------------------------------------------------------
   No.  Atomic        x           y           z          Radius      Charge
        Label       (Angs)      (Angs)      (Angs)       (Angs)       (e) 
--------------------------------------------------------------------------------
     1  Mg    c     1.053000    1.053000    0.000000    0.000000    2.000000
     2  O     c     2.304052   -0.198052    0.000000    0.000000    0.869020
     3  O     c    -0.198051    2.304051    0.000000    0.000000    0.869020
     4  O     c     2.051239    2.051239   -2.134199    0.000000    0.869020
     5  O     c     2.051239    0.054761    2.134199    0.000000    0.869020
     6  O     c     0.054761    2.051239   -2.134199    0.000000    0.869020
     7  O     c     0.054761    0.054761    2.134199    0.000000    0.869020
     8  Mg    c    -0.027995    2.133995   -2.152307    0.000000    2.000000
     9  Mg    c    -0.027995    2.133995    2.152307    0.000000    2.000000
    10  Mg    c     2.133995   -0.027995   -2.152307    0.000000    2.000000
    11  Mg    c     2.133995   -0.027995    2.152307    0.000000    2.000000
    12  O     c     2.104227    4.341057    0.000000    0.000000    0.869020
    13  O     c    -2.235057    0.001773    0.000000    0.000000    0.869020
    14  O     c     0.001773   -2.235057    0.000000    0.000000    0.869020
    15  O     c     4.341057   -2.235057    0.000000    0.000000    0.869020
    16  Mg    c     0.037666    2.068334    0.000000    0.000000    2.000000
    17  Mg    c    -2.108225    2.068334    0.000000    0.000000    2.000000
    18  Mg    c     2.068334   -2.108225    0.000000    0.000000    2.000000
    19  Mg    c     4.214225    0.037666    0.000000    0.000000    2.000000
    20  O     c     2.127731   -2.138339   -2.154080    0.000000    0.869020
    21  O     c     2.127731   -2.138339    2.154080    0.000000    0.869020
    22  O     c     4.244339   -0.021731   -2.154080    0.000000    0.869020
    23  O     c     4.244339   -0.021731    2.154080    0.000000    0.869020
    24  O     c    -0.021731    4.244339   -2.154080    0.000000    0.869020
    25  O     c    -0.021731    4.244339    2.154080    0.000000    0.869020
    26  O     c    -2.138339    2.127731   -2.154080    0.000000    0.869020
    27  O     c    -2.138339    2.127731    2.154080    0.000000    0.869020
    28  Mg    c     0.009947   -2.017457   -1.996573    0.000000    2.000000
    29  Mg    c     0.009947   -2.017457    1.996573    0.000000    2.000000
    30  Mg    c     4.123457    2.096053   -1.996573    0.000000    2.000000
    31  Mg    c     4.123457    2.096053    1.996573    0.000000    2.000000
    32  Mg    c     2.096053    4.123457   -1.996573    0.000000    2.000000
    33  Mg    c     2.096053    4.123457    1.996573    0.000000    2.000000
    34  Mg    c    -2.017457    0.009947   -1.996573    0.000000    2.000000
    35  Mg    c    -2.017457    0.009947    1.996573    0.000000    2.000000
    36  O     s     2.287002   -0.181002    0.000000    0.000000   -2.869020
    37  O     s    -0.181001    2.287001    0.000000    0.000000   -2.869020
    38  O     s     2.050724    2.050724   -2.155227    0.000000   -2.869020
    39  O     s     2.050724    2.050724    2.155227    0.000000   -2.869020
    40  O     s     0.055276    0.055276   -2.155227    0.000000   -2.869020
    41  O     s     0.055276    0.055276    2.155227    0.000000   -2.869020
    42  O     s     2.100414    4.371622    0.000000    0.000000   -2.869020
    43  O     s    -2.265622    0.005586    0.000000    0.000000   -2.869020
    44  O     s     0.005586   -2.265622    0.000000    0.000000   -2.869020
    45  O     s     4.371622    2.100414    0.000000    0.000000   -2.869020
    46  O     s     2.130584   -2.139224   -2.159535    0.000000   -2.869020
    47  O     s     2.130584   -2.139224    2.159535    0.000000   -2.869020
    48  O     s     4.245224   -0.024584   -2.159535    0.000000   -2.869020
    49  O     s     4.245224   -0.024584    2.159535    0.000000   -2.869020
    50  O     s    -0.024584    4.245224   -2.159535    0.000000   -2.869020
    51  O     s    -0.024584    4.245224    2.159535    0.000000   -2.869020
    52  O     s    -2.139224    2.130584   -2.159535    0.000000   -2.869020
    53  O     s    -2.139224    2.130584    2.159535    0.000000   -2.869020
--------------------------------------------------------------------------------

  Final coordinates of symmetry reduced region 1 (relative to defect centre):

--------------------------------------------------------------------------------
   No.  Atomic        x           y           z          Charge
        Label       (Angs)      (Angs)      (Angs)         (e) 
--------------------------------------------------------------------------------
     1  Mg    c    -0.000000    0.000000    0.000000    2.000000
     2  O     c     1.251052   -1.251052    0.000000    0.869020
     3  O     c    -1.251051    1.251051    0.000000    0.869020
     4  O     c     0.998239    0.998239   -2.134199    0.869020
     5  Mg    c    -1.080995    1.080995   -2.152307    2.000000
     6  Mg    c     1.080995   -1.080995   -2.152307    2.000000
     7  O     c     1.051227    3.288057    0.000000    0.869020
     8  O     c    -1.051227   -3.288057    0.000000    0.869020
     9  Mg    c    -1.015334    1.015334    0.000000    2.000000
    10  Mg    c     1.015334   -3.161225    0.000000    2.000000
    11  O     c     1.074731   -3.191339   -2.154080    0.869020
    12  O     c    -1.074731    3.191339   -2.154080    0.869020
    13  Mg    c    -1.043053   -3.070457   -1.996573    2.000000
    14  Mg    c     1.043053    3.070457   -1.996573    2.000000
    15  O     s     1.234002   -1.234002    0.000000   -2.869020
    16  O     s    -1.234001    1.234001    0.000000   -2.869020
    17  O     s     0.997724    0.997724   -2.155227   -2.869020
    18  O     s     1.047414    3.318622    0.000000   -2.869020
    19  O     s    -1.047414   -3.318622    0.000000   -2.869020
    20  O     s     1.077584   -3.192224   -2.159535   -2.869020
    21  O     s    -1.077584    3.192224   -2.159535   -2.869020
--------------------------------------------------------------------------------


  Final derivatives for region 1 :

--------------------------------------------------------------------------------
   No.  Atomic          x             y             z            Radius
        Label       (eV/Angs)     (eV/Angs)     (eV/Angs)       (eV/Angs)
--------------------------------------------------------------------------------
     1  Mg    c      -0.000030      0.000000      0.000000      0.000000
     2  O     c      -0.000003      0.000000      0.000000      0.000000
     3  O     c       0.000006      0.000000      0.000000      0.000000
     4  O     c       0.000004     -0.000000      0.000012      0.000000
     5  Mg    c       0.000003      0.000000      0.000002      0.000000
     6  Mg    c      -0.000005      0.000000      0.000008      0.000000
     7  O     c      -0.000000     -0.000009      0.000000      0.000000
     8  O     c       0.000001      0.000010      0.000000      0.000000
     9  Mg    c       0.000007     -0.000002      0.000000      0.000000
    10  Mg    c      -0.000007      0.000019      0.000000      0.000000
    11  O     c       0.000001      0.000003      0.000003      0.000000
    12  O     c      -0.000000     -0.000001      0.000001      0.000000
    13  Mg    c       0.000001      0.000014      0.000020      0.000000
    14  Mg    c       0.000003     -0.000012      0.000017      0.000000
    15  O     s       0.000030      0.000000      0.000000      0.000000
    16  O     s       0.000020      0.000000      0.000000      0.000000
    17  O     s      -0.000015     -0.000000     -0.000024      0.000000
    18  O     s       0.000001      0.000026      0.000000      0.000000
    19  O     s      -0.000003     -0.000027      0.000000      0.000000
    20  O     s       0.000003     -0.000010     -0.000010      0.000000
    21  O     s      -0.000003      0.000004     -0.000005      0.000000
--------------------------------------------------------------------------------


  Time to end of optimisation  =        0.0905 seconds


  Peak dynamic memory used =       2.86 MB 


  Timing analysis for GULP :

--------------------------------------------------------------------------------
  Task / Subroutine                                          Time (Seconds)
--------------------------------------------------------------------------------
  Calculation of reciprocal space energy and derivatives          0.0001
  Calculation of real space energy and derivatives                0.0010
  Calculation for region 1 energy and derivatives (2-b)           0.0328
  Calculation for region 2a energy                                0.0518
  Calculation for region 2b energy                                0.0008
  Calculation and manipulation of Hessian matrix                  0.0005
--------------------------------------------------------------------------------
  Total CPU time                                                  0.0905
--------------------------------------------------------------------------------


  Job Finished at 09:58.44 23rd August     2023                               

