********************************************************************************
*                       GENERAL UTILITY LATTICE PROGRAM                        *
*                                 Julian Gale                                  *
*                       Curtin Institute for Computation                       *
*                    School of Molecular and Life Sciences                     *
*                    Curtin University, Western Australia                      *
********************************************************************************
* Version = 6.2.0 * Last modified =  22nd August 2023                          *
********************************************************************************
 Copying current pdf block settings to all configurations
*  optimise     - perform optimisation run                                     *
*  conv         - constant volume calculation                                  *
*  c6           - use real and reciprocal space sum for C6 terms               *
*  phonon       - calculate phonons for final geometry                         *
*  eigenvectors - output phonon eigenvectors                                   *
*  nosymmetry   - turn off symmetry after initial structure generation         *
*  full         - generate full unit cell when symmetry is removed             *
*  nofrequency  - suppress frequency output after phonon calculation           *
*  noksymmetry  - do not use Brillouin zone symmetry when generating k points  *
*  nokpoints    - do not print out list of k points                            *
*  makeEigenArrays - store all eigenvectors and frequencies after calculation  *
*  coreinfo     - output atomic information for "cores" used                   *
*                 in phonon calculations                                       *
*  PDF          - calculate Pair Distribution Functions                        *
*  nowidth      - suppress output of peak widths for PDFs                      *
*  nopartial    - suppress output of partial Pair Distribution Functions       *
********************************************************************************
* MT Dove fitted potentials for Ca/Sr titanates used for multiple configuratio *
* Both partial and width output is suppressed.                                 *
* This is a test file, so small shrink factors have been used.                 *
* Convergence of phonon properties with k points has NOT been achieved         *
********************************************************************************


  Job Started  at 10:07.40 23rd August     2023                               

  Number of CPUs =     1


  Total number of configurations input =      4

********************************************************************************
*  Input for Configuration =   1 : Ca0.25Sr0.75TiO3                            *
********************************************************************************

  Formula = CaSr3Ti4O12                                                 

  Number of irreducible atoms/shells =      36


  Total number atoms/shells =      36

  Dimensionality = 3               :  Bulk   



  Cartesian lattice vectors (Angstroms) :

        5.470000    0.000000    0.000000
        0.000000    5.470000    0.000000
        0.000000    0.000000    7.730000

  Cell parameters (Angstroms/Degrees):

  a =       5.4700    alpha =  90.0000
  b =       5.4700    beta  =  90.0000
  c =       7.7300    gamma =  90.0000

  Initial cell volume =         231.288557 Angs**3

  Shrinking factors =      2     2     2

  Temperature of configuration =   0.00     K 

  Pressure of configuration =         0.000 GPa 

  Fractional coordinates of asymmetric unit :

--------------------------------------------------------------------------------
   No.  Atomic       x           y          z         Charge      Occupancy
        Label      (Frac)      (Frac)     (Frac)        (e)         (Frac)  
--------------------------------------------------------------------------------
      1 Ca    c    0.950000 *  0.263000 *  0.250000 *   2.00000    0.250000    
      2 Ca    c    0.450000 *  0.737000 *  0.750000 *   2.00000    0.250000    
      3 Sr    c    0.950000    0.263000    0.250000     2.00000    0.750000    
      4 Sr    c    0.450000    0.737000    0.750000     2.00000    0.750000    
      5 Ca    c    0.446000 *  0.760000 *  0.250000 *   2.00000    0.250000    
      6 Ca    c    0.946000 *  0.240000 *  0.750000 *   2.00000    0.250000    
      7 Sr    c    0.446000    0.760000    0.250000     2.00000    0.750000    
      8 Sr    c    0.946000    0.240000    0.750000     2.00000    0.750000    
      9 Ti    c    0.965000 *  0.749000 *  0.999000 *   4.00000    1.000000    
     10 Ti    c    0.465000 *  0.251000 *  0.001000 *   4.00000    1.000000    
     11 Ti    c    0.465000 *  0.251000 *  0.499000 *   4.00000    1.000000    
     12 Ti    c    0.965000 *  0.749000 *  0.501000 *   4.00000    1.000000    
     13 O1    c    0.910000 *  0.746000 *  0.250000 *   0.84819    1.000000    
     14 O1    c    0.410000 *  0.254000 *  0.750000 *   0.84819    1.000000    
     15 O2    c    0.172000 *  0.031000 *  0.027000 *   0.84819    1.000000    
     16 O2    c    0.672000 *  0.969000 *  0.973000 *   0.84819    1.000000    
     17 O2    c    0.672000 *  0.969000 *  0.527000 *   0.84819    1.000000    
     18 O2    c    0.172000 *  0.031000 *  0.473000 *   0.84819    1.000000    
     19 O3    c    0.006000 *  0.757000 *  0.750000 *   0.84819    1.000000    
     20 O3    c    0.506000 *  0.243000 *  0.250000 *   0.84819    1.000000    
     21 O4    c    0.719000 *  0.485000 *  0.976000 *   0.84819    1.000000    
     22 O4    c    0.219000 *  0.515000 *  0.024000 *   0.84819    1.000000    
     23 O4    c    0.219000 *  0.515000 *  0.476000 *   0.84819    1.000000    
     24 O4    c    0.719000 *  0.485000 *  0.524000 *   0.84819    1.000000    
     25 O1    s    0.910000 *  0.746000 *  0.250000 *  -2.84819    1.000000    
     26 O1    s    0.410000 *  0.254000 *  0.750000 *  -2.84819    1.000000    
     27 O2    s    0.172000 *  0.031000 *  0.027000 *  -2.84819    1.000000    
     28 O2    s    0.672000 *  0.969000 *  0.973000 *  -2.84819    1.000000    
     29 O2    s    0.672000 *  0.969000 *  0.527000 *  -2.84819    1.000000    
     30 O2    s    0.172000 *  0.031000 *  0.473000 *  -2.84819    1.000000    
     31 O3    s    0.006000 *  0.757000 *  0.750000 *  -2.84819    1.000000    
     32 O3    s    0.506000 *  0.243000 *  0.250000 *  -2.84819    1.000000    
     33 O4    s    0.719000 *  0.485000 *  0.976000 *  -2.84819    1.000000    
     34 O4    s    0.219000 *  0.515000 *  0.024000 *  -2.84819    1.000000    
     35 O4    s    0.219000 *  0.515000 *  0.476000 *  -2.84819    1.000000    
     36 O4    s    0.719000 *  0.485000 *  0.524000 *  -2.84819    1.000000    
--------------------------------------------------------------------------------


  Constraints : 

--------------------------------------------------------------------------------
  Constraint no.      Unconstrained     Constrained    Coefficient    Offset
                         Variable         Variable
--------------------------------------------------------------------------------
           1                 1 x             3 x         1.00000      0.0000
           2                 1 y             3 y         1.00000      0.0000
           3                 1 z             3 z         1.00000      0.0000
           4                 2 x             4 x         1.00000      0.0000
           5                 2 y             4 y         1.00000      0.0000
           6                 2 z             4 z         1.00000      0.0000
           7                 5 x             7 x         1.00000      0.0000
           8                 5 y             7 y         1.00000      0.0000
           9                 5 z             7 z         1.00000      0.0000
          10                 6 x             8 x         1.00000      0.0000
          11                 6 y             8 y         1.00000      0.0000
          12                 6 z             8 z         1.00000      0.0000
--------------------------------------------------------------------------------

  PDF uses Gamma centred Brillouin zone with no symmetry reduction


********************************************************************************
*  Input for Configuration =   2 : CaSr(TiO3)2                                 *
********************************************************************************

  Formula = Ca2Sr2Ti4O12                                                

  Number of irreducible atoms/shells =      32


  Total number atoms/shells =      32

  Dimensionality = 3               :  Bulk   



  Cartesian lattice vectors (Angstroms) :

        5.470000    0.000000    0.000000
        0.000000    5.470000    0.000000
        0.000000    0.000000    7.730000

  Cell parameters (Angstroms/Degrees):

  a =       5.4700    alpha =  90.0000
  b =       5.4700    beta  =  90.0000
  c =       7.7300    gamma =  90.0000

  Initial cell volume =         231.288557 Angs**3

  Shrinking factors =      2     2     2

  Temperature of configuration =   0.00     K 

  Pressure of configuration =         0.000 GPa 

  Fractional coordinates of asymmetric unit :

--------------------------------------------------------------------------------
   No.  Atomic       x           y          z         Charge      Occupancy
        Label      (Frac)      (Frac)     (Frac)        (e)         (Frac)  
--------------------------------------------------------------------------------
      1 Ca    c    0.950000    0.263000    0.250000     2.00000    1.000000    
      2 Ca    c    0.450000 *  0.737000 *  0.750000 *   2.00000    1.000000    
      3 Sr    c    0.446000 *  0.760000 *  0.250000 *   2.00000    1.000000    
      4 Sr    c    0.946000 *  0.240000 *  0.750000 *   2.00000    1.000000    
      5 Ti    c    0.965000 *  0.749000 *  0.999000 *   4.00000    1.000000    
      6 Ti    c    0.465000 *  0.251000 *  0.001000 *   4.00000    1.000000    
      7 Ti    c    0.465000 *  0.251000 *  0.499000 *   4.00000    1.000000    
      8 Ti    c    0.965000 *  0.749000 *  0.501000 *   4.00000    1.000000    
      9 O1    c    0.910000 *  0.746000 *  0.250000 *   0.84819    1.000000    
     10 O1    c    0.410000 *  0.254000 *  0.750000 *   0.84819    1.000000    
     11 O2    c    0.172000 *  0.031000 *  0.027000 *   0.84819    1.000000    
     12 O2    c    0.672000 *  0.969000 *  0.973000 *   0.84819    1.000000    
     13 O2    c    0.672000 *  0.969000 *  0.527000 *   0.84819    1.000000    
     14 O2    c    0.172000 *  0.031000 *  0.473000 *   0.84819    1.000000    
     15 O3    c    0.006000 *  0.757000 *  0.750000 *   0.84819    1.000000    
     16 O3    c    0.506000 *  0.243000 *  0.250000 *   0.84819    1.000000    
     17 O4    c    0.719000 *  0.485000 *  0.976000 *   0.84819    1.000000    
     18 O4    c    0.219000 *  0.515000 *  0.024000 *   0.84819    1.000000    
     19 O4    c    0.219000 *  0.515000 *  0.476000 *   0.84819    1.000000    
     20 O4    c    0.719000 *  0.485000 *  0.524000 *   0.84819    1.000000    
     21 O1    s    0.910000 *  0.746000 *  0.250000 *  -2.84819    1.000000    
     22 O1    s    0.410000 *  0.254000 *  0.750000 *  -2.84819    1.000000    
     23 O2    s    0.172000 *  0.031000 *  0.027000 *  -2.84819    1.000000    
     24 O2    s    0.672000 *  0.969000 *  0.973000 *  -2.84819    1.000000    
     25 O2    s    0.672000 *  0.969000 *  0.527000 *  -2.84819    1.000000    
     26 O2    s    0.172000 *  0.031000 *  0.473000 *  -2.84819    1.000000    
     27 O3    s    0.006000 *  0.757000 *  0.750000 *  -2.84819    1.000000    
     28 O3    s    0.506000 *  0.243000 *  0.250000 *  -2.84819    1.000000    
     29 O4    s    0.719000 *  0.485000 *  0.976000 *  -2.84819    1.000000    
     30 O4    s    0.219000 *  0.515000 *  0.024000 *  -2.84819    1.000000    
     31 O4    s    0.219000 *  0.515000 *  0.476000 *  -2.84819    1.000000    
     32 O4    s    0.719000 *  0.485000 *  0.524000 *  -2.84819    1.000000    
--------------------------------------------------------------------------------


  PDF uses Gamma centred Brillouin zone with no symmetry reduction


********************************************************************************
*  Input for Configuration =   3 : Ca0.75Sr0.25TiO3                            *
********************************************************************************

  Formula = Ca3SrTi4O12                                                 

  Number of irreducible atoms/shells =      36


  Total number atoms/shells =      36

  Dimensionality = 3               :  Bulk   



  Cartesian lattice vectors (Angstroms) :

        5.470000    0.000000    0.000000
        0.000000    5.470000    0.000000
        0.000000    0.000000    7.730000

  Cell parameters (Angstroms/Degrees):

  a =       5.4700    alpha =  90.0000
  b =       5.4700    beta  =  90.0000
  c =       7.7300    gamma =  90.0000

  Initial cell volume =         231.288557 Angs**3

  Shrinking factors =      2     2     2

  Temperature of configuration =   0.00     K 

  Pressure of configuration =         0.000 GPa 

  Fractional coordinates of asymmetric unit :

--------------------------------------------------------------------------------
   No.  Atomic       x           y          z         Charge      Occupancy
        Label      (Frac)      (Frac)     (Frac)        (e)         (Frac)  
--------------------------------------------------------------------------------
      1 Ca    c    0.950000 *  0.263000 *  0.250000 *   2.00000    0.750000    
      2 Ca    c    0.450000 *  0.737000 *  0.750000 *   2.00000    0.750000    
      3 Sr    c    0.950000    0.263000    0.250000     2.00000    0.250000    
      4 Sr    c    0.450000    0.737000    0.750000     2.00000    0.250000    
      5 Ca    c    0.446000 *  0.760000 *  0.250000 *   2.00000    0.750000    
      6 Ca    c    0.946000 *  0.240000 *  0.750000 *   2.00000    0.750000    
      7 Sr    c    0.446000    0.760000    0.250000     2.00000    0.250000    
      8 Sr    c    0.946000    0.240000    0.750000     2.00000    0.250000    
      9 Ti    c    0.965000 *  0.749000 *  0.999000 *   4.00000    1.000000    
     10 Ti    c    0.465000 *  0.251000 *  0.001000 *   4.00000    1.000000    
     11 Ti    c    0.465000 *  0.251000 *  0.499000 *   4.00000    1.000000    
     12 Ti    c    0.965000 *  0.749000 *  0.501000 *   4.00000    1.000000    
     13 O1    c    0.910000 *  0.746000 *  0.250000 *   0.84819    1.000000    
     14 O1    c    0.410000 *  0.254000 *  0.750000 *   0.84819    1.000000    
     15 O2    c    0.172000 *  0.031000 *  0.027000 *   0.84819    1.000000    
     16 O2    c    0.672000 *  0.969000 *  0.973000 *   0.84819    1.000000    
     17 O2    c    0.672000 *  0.969000 *  0.527000 *   0.84819    1.000000    
     18 O2    c    0.172000 *  0.031000 *  0.473000 *   0.84819    1.000000    
     19 O3    c    0.006000 *  0.757000 *  0.750000 *   0.84819    1.000000    
     20 O3    c    0.506000 *  0.243000 *  0.250000 *   0.84819    1.000000    
     21 O4    c    0.719000 *  0.485000 *  0.976000 *   0.84819    1.000000    
     22 O4    c    0.219000 *  0.515000 *  0.024000 *   0.84819    1.000000    
     23 O4    c    0.219000 *  0.515000 *  0.476000 *   0.84819    1.000000    
     24 O4    c    0.719000 *  0.485000 *  0.524000 *   0.84819    1.000000    
     25 O1    s    0.910000 *  0.746000 *  0.250000 *  -2.84819    1.000000    
     26 O1    s    0.410000 *  0.254000 *  0.750000 *  -2.84819    1.000000    
     27 O2    s    0.172000 *  0.031000 *  0.027000 *  -2.84819    1.000000    
     28 O2    s    0.672000 *  0.969000 *  0.973000 *  -2.84819    1.000000    
     29 O2    s    0.672000 *  0.969000 *  0.527000 *  -2.84819    1.000000    
     30 O2    s    0.172000 *  0.031000 *  0.473000 *  -2.84819    1.000000    
     31 O3    s    0.006000 *  0.757000 *  0.750000 *  -2.84819    1.000000    
     32 O3    s    0.506000 *  0.243000 *  0.250000 *  -2.84819    1.000000    
     33 O4    s    0.719000 *  0.485000 *  0.976000 *  -2.84819    1.000000    
     34 O4    s    0.219000 *  0.515000 *  0.024000 *  -2.84819    1.000000    
     35 O4    s    0.219000 *  0.515000 *  0.476000 *  -2.84819    1.000000    
     36 O4    s    0.719000 *  0.485000 *  0.524000 *  -2.84819    1.000000    
--------------------------------------------------------------------------------


  Constraints : 

--------------------------------------------------------------------------------
  Constraint no.      Unconstrained     Constrained    Coefficient    Offset
                         Variable         Variable
--------------------------------------------------------------------------------
           1                 1 x             3 x         1.00000      0.0000
           2                 1 y             3 y         1.00000      0.0000
           3                 1 z             3 z         1.00000      0.0000
           4                 2 x             4 x         1.00000      0.0000
           5                 2 y             4 y         1.00000      0.0000
           6                 2 z             4 z         1.00000      0.0000
           7                 5 x             7 x         1.00000      0.0000
           8                 5 y             7 y         1.00000      0.0000
           9                 5 z             7 z         1.00000      0.0000
          10                 6 x             8 x         1.00000      0.0000
          11                 6 y             8 y         1.00000      0.0000
          12                 6 z             8 z         1.00000      0.0000
--------------------------------------------------------------------------------

  PDF uses Gamma centred Brillouin zone with no symmetry reduction


********************************************************************************
*  Input for Configuration =   4 : CaTiO3                                      *
********************************************************************************

  Formula = Ca4Ti4O12                                                   

  Number of irreducible atoms/shells =      32


  Total number atoms/shells =      32

  Dimensionality = 3               :  Bulk   



  Cartesian lattice vectors (Angstroms) :

        5.378500    0.000000    0.000000
        0.000000    5.441900    0.000000
        0.000000    0.000000    7.640000

  Cell parameters (Angstroms/Degrees):

  a =       5.3785    alpha =  90.0000
  b =       5.4419    beta  =  90.0000
  c =       7.6400    gamma =  90.0000

  Initial cell volume =         223.617140 Angs**3

  Shrinking factors =      2     2     2

  Temperature of configuration =   0.00     K 

  Pressure of configuration =         0.000 GPa 

  Fractional coordinates of asymmetric unit :

--------------------------------------------------------------------------------
   No.  Atomic       x           y          z         Charge      Occupancy
        Label      (Frac)      (Frac)     (Frac)        (e)         (Frac)  
--------------------------------------------------------------------------------
      1 Ca    c    0.993000    0.033000    0.250000     2.00000    1.000000    
      2 Ca    c    0.493000 *  0.467000 *  0.750000 *   2.00000    1.000000    
      3 Ca    c    0.507000 *  0.533000 *  0.250000 *   2.00000    1.000000    
      4 Ca    c    0.007000 *  0.967000 *  0.750000 *   2.00000    1.000000    
      5 Ti    c    0.000000 *  0.500000 *  0.000000 *   4.00000    1.000000    
      6 Ti    c    0.500000 *  0.000000 *  0.000000 *   4.00000    1.000000    
      7 Ti    c    0.500000 *  0.000000 *  0.500000 *   4.00000    1.000000    
      8 Ti    c    0.000000 *  0.500000 *  0.500000 *   4.00000    1.000000    
      9 O1    c    0.072000 *  0.489000 *  0.250000 *   0.84819    1.000000    
     10 O1    c    0.572000 *  0.011000 *  0.750000 *   0.84819    1.000000    
     11 O1    c    0.428000 *  0.989000 *  0.250000 *   0.84819    1.000000    
     12 O1    c    0.928000 *  0.511000 *  0.750000 *   0.84819    1.000000    
     13 O2    c    0.717000 *  0.284000 *  0.035000 *   0.84819    1.000000    
     14 O2    c    0.217000 *  0.216000 *  0.965000 *   0.84819    1.000000    
     15 O2    c    0.783000 *  0.784000 *  0.465000 *   0.84819    1.000000    
     16 O2    c    0.283000 *  0.716000 *  0.535000 *   0.84819    1.000000    
     17 O2    c    0.283000 *  0.716000 *  0.965000 *   0.84819    1.000000    
     18 O2    c    0.783000 *  0.784000 *  0.035000 *   0.84819    1.000000    
     19 O2    c    0.217000 *  0.216000 *  0.535000 *   0.84819    1.000000    
     20 O2    c    0.717000 *  0.284000 *  0.465000 *   0.84819    1.000000    
     21 O1    s    0.072000 *  0.489000 *  0.250000 *  -2.84819    1.000000    
     22 O1    s    0.572000 *  0.011000 *  0.750000 *  -2.84819    1.000000    
     23 O1    s    0.428000 *  0.989000 *  0.250000 *  -2.84819    1.000000    
     24 O1    s    0.928000 *  0.511000 *  0.750000 *  -2.84819    1.000000    
     25 O2    s    0.717000 *  0.284000 *  0.035000 *  -2.84819    1.000000    
     26 O2    s    0.217000 *  0.216000 *  0.965000 *  -2.84819    1.000000    
     27 O2    s    0.783000 *  0.784000 *  0.465000 *  -2.84819    1.000000    
     28 O2    s    0.283000 *  0.716000 *  0.535000 *  -2.84819    1.000000    
     29 O2    s    0.283000 *  0.716000 *  0.965000 *  -2.84819    1.000000    
     30 O2    s    0.783000 *  0.784000 *  0.035000 *  -2.84819    1.000000    
     31 O2    s    0.217000 *  0.216000 *  0.535000 *  -2.84819    1.000000    
     32 O2    s    0.717000 *  0.284000 *  0.465000 *  -2.84819    1.000000    
--------------------------------------------------------------------------------


  PDF uses Gamma centred Brillouin zone with no symmetry reduction


********************************************************************************
*  General input information                                                   *
********************************************************************************

  Species output for all configurations : 

--------------------------------------------------------------------------------
  Species    Type    Atomic    Atomic    Charge       Radii (Angs)     Library
                     Number     Mass       (e)     Cova   Ionic  VDW   Symbol
--------------------------------------------------------------------------------
    Sr       Core       38      87.62   2.000000   1.120  0.000  1.670          
    Ca       Core       20      40.08   2.000000   0.990  0.000  2.750          
    Ti       Core       22      47.88   4.000000   1.470  0.000  2.190          
    O        Core        8      16.00   0.848190   0.730  0.000  1.360          
    O        Shell       8       0.00  -2.848190   0.730  0.000  1.360          
--------------------------------------------------------------------------------


  Species output for PDF data: 

--------------------------------------------------------------------------------
  Species    Type       bbar     sigma_inc  sigma_coh     
                       (Angs)     (Angs^2)   (Angs^2)     
--------------------------------------------------------------------------------
    Sr       Core     0.7020E-04 0.5724E-09 0.6193E-07
    Ca       Core     0.4760E-04 0.4276E-09 0.2847E-07
    Ti       Core     -.3438E-04 0.2865E-07 0.1485E-07
    O        Core     0.5803E-04 0.2987E-11 0.4232E-07
    O        Shell    0.5803E-04 0.2987E-11 0.4232E-07
--------------------------------------------------------------------------------




********************************************************************************
*  PDF Input Settings                                                          *
********************************************************************************




!!!!!!!!!!!!!!!!!!!!!!!!!!!!!!!!!!!!!!!!!!!!!!!!!!!!!!!!!!!!!!!!!!!!!!!!!!!!!!!!
!! ADVICE  : 'pdf all' option acts on all configurations
!!!!!!!!!!!!!!!!!!!!!!!!!!!!!!!!!!!!!!!!!!!!!!!!!!!!!!!!!!!!!!!!!!!!!!!!!!!!!!!!

********************************************************************************
*  PDF parameters for each configuration 
*
*  Configuration   1
********************************************************************************
 Pair Distribution Function to be calculated up to  6.0000 A
 300 rbins to be used.
********************************************************************************

*  Configuration   2
********************************************************************************
 Pair Distribution Function to be calculated up to  6.0000 A
 300 rbins to be used.
********************************************************************************

*  Configuration   3
********************************************************************************
 Pair Distribution Function to be calculated up to  6.0000 A
 300 rbins to be used.
********************************************************************************

*  Configuration   4
********************************************************************************
 Pair Distribution Function to be calculated up to  6.0000 A
 300 rbins to be used.
********************************************************************************

  Lattice summation method               =    Ewald          (3-D)
                                         =    Parry          (2-D)
                                         =    Saunders et al (1-D)
  Accuracy factor for lattice sums       =   12.000


  Analytic derivatives to be used

  Time limit = Infinity

  Maximum range for interatomic potentials =    100000.000000 Angstroms

  C6 terms to be calculated in real/reciprocal space by one-centre decomposition

  General interatomic potentials :

--------------------------------------------------------------------------------
Atom  Types   Potential      Parameter       Value         Units   Cutoffs(Ang)
  1     2                                                            Min /  Max 
--------------------------------------------------------------------------------
Sr   c O    s Buckingham    Buckingham A     13329.779    eV        0.000 10.000
                            Buckingham rho  0.24000000    Ang       
                            Buckingham C     0.0000000    eV*Ang^6  
--------------------------------------------------------------------------------
Ti   c O    s Buckingham    Buckingham A     2526.2674    eV        0.000 10.000
                            Buckingham rho  0.28880000    Ang       
                            Buckingham C     0.0000000    eV*Ang^6  
--------------------------------------------------------------------------------
O    s O    s Buckingham    Buckingham A     481913.54    eV        0.000 10.000
                            Buckingham rho  0.14900000    Ang       
                            Buckingham C     27.880000    eV*Ang^6  
--------------------------------------------------------------------------------
Ca   c O    s Buckingham    Buckingham A     2273.8827    eV        0.000 10.000
                            Buckingham rho  0.29860000    Ang       
                            Buckingham C     0.0000000    eV*Ang^6  
--------------------------------------------------------------------------------
O    c O    s Spring (c-s)  Spring k 2       58.204115    eV*Ang^-2 0.000  0.800
                            Spring k 4       0.0000000    eV*Ang^-4 
--------------------------------------------------------------------------------

********************************************************************************
*  Output for configuration   1 : Ca0.25Sr0.75TiO3                             *
********************************************************************************


  Components of energy : 

--------------------------------------------------------------------------------
  Interatomic potentials     =          81.33507677 eV    
  Monopole - monopole (real) =        -333.31948584 eV    
  Monopole - monopole (recip)=        -400.64827490 eV    
  Monopole - monopole (total)=        -733.96776074 eV    
  Dispersion (real+recip)    =          -3.87599781 eV    
--------------------------------------------------------------------------------
  Total lattice energy       =        -656.50868178 eV    
--------------------------------------------------------------------------------
  Total lattice energy       =          -63343.0521 kJ/(mole unit cells)
--------------------------------------------------------------------------------


  Number of variables =       96

  Maximum number of calculations  =          1000
  Maximum Hessian update interval =            10
  Maximum step size               =   1.000000000
  Maximum parameter tolerance     =   0.000010000
  Maximum function  tolerance     =   0.000010000
  Maximum gradient  tolerance     =   0.001000000
  Maximum gradient  component     =   0.010000000

  Cell parameters to be optimised using strains

  Newton-Raphson optimiser to be used

  BFGS hessian update to be used

  Lower half triangular hessian to be used

  Start of bulk optimisation :

  Cycle:      0 Energy:      -656.508682  Gnorm:      0.730911  CPU:    0.013
  ** Hessian calculated **
  Cycle:      1 Energy:      -657.078927  Gnorm:      0.614955  CPU:    0.019
  ** Hessian calculated **
  Cycle:      2 Energy:      -657.624124  Gnorm:      0.296578  CPU:    0.031
  ** Hessian calculated **
  Cycle:      3 Energy:      -657.718043  Gnorm:      0.090351  CPU:    0.043
  Cycle:      4 Energy:      -657.728854  Gnorm:      0.056269  CPU:    0.048
  Cycle:      5 Energy:      -657.737675  Gnorm:      0.065275  CPU:    0.053
  Cycle:      6 Energy:      -657.746126  Gnorm:      0.041217  CPU:    0.058
  Cycle:      7 Energy:      -657.749913  Gnorm:      0.045800  CPU:    0.062
  Cycle:      8 Energy:      -657.757441  Gnorm:      0.054710  CPU:    0.068
  Cycle:      9 Energy:      -657.761934  Gnorm:      0.045266  CPU:    0.072
  Cycle:     10 Energy:      -657.767963  Gnorm:      0.045737  CPU:    0.077
  Cycle:     11 Energy:      -657.773848  Gnorm:      0.042207  CPU:    0.083
  Cycle:     12 Energy:      -657.777326  Gnorm:      0.038210  CPU:    0.087
  ** Hessian calculated **
  Cycle:     13 Energy:      -657.779335  Gnorm:      0.028160  CPU:    0.099
  Cycle:     14 Energy:      -657.781912  Gnorm:      0.031413  CPU:    0.104
  Cycle:     15 Energy:      -657.784028  Gnorm:      0.030047  CPU:    0.109
  Cycle:     16 Energy:      -657.786163  Gnorm:      0.029448  CPU:    0.113
  Cycle:     17 Energy:      -657.789024  Gnorm:      0.026592  CPU:    0.118
  Cycle:     18 Energy:      -657.790435  Gnorm:      0.022662  CPU:    0.122
  Cycle:     19 Energy:      -657.792644  Gnorm:      0.029624  CPU:    0.128
  Cycle:     20 Energy:      -657.794809  Gnorm:      0.028979  CPU:    0.132
  Cycle:     21 Energy:      -657.797108  Gnorm:      0.038010  CPU:    0.137
  Cycle:     22 Energy:      -657.801945  Gnorm:      0.047136  CPU:    0.142
  ** Hessian calculated **
  Cycle:     23 Energy:      -657.804512  Gnorm:      0.024597  CPU:    0.154
  Cycle:     24 Energy:      -657.805584  Gnorm:      0.020981  CPU:    0.158
  Cycle:     25 Energy:      -657.806475  Gnorm:      0.017460  CPU:    0.162
  Cycle:     26 Energy:      -657.807361  Gnorm:      0.015902  CPU:    0.167
  Cycle:     27 Energy:      -657.808040  Gnorm:      0.017547  CPU:    0.171
  Cycle:     28 Energy:      -657.808997  Gnorm:      0.017811  CPU:    0.175
  Cycle:     29 Energy:      -657.809771  Gnorm:      0.018665  CPU:    0.180
  Cycle:     30 Energy:      -657.810335  Gnorm:      0.015949  CPU:    0.184
  Cycle:     31 Energy:      -657.810924  Gnorm:      0.014385  CPU:    0.188
  Cycle:     32 Energy:      -657.811376  Gnorm:      0.015853  CPU:    0.192
  ** Hessian calculated **
  Cycle:     33 Energy:      -657.811696  Gnorm:      0.011203  CPU:    0.204
  Cycle:     34 Energy:      -657.812089  Gnorm:      0.012947  CPU:    0.209
  Cycle:     35 Energy:      -657.812470  Gnorm:      0.014972  CPU:    0.213
  Cycle:     36 Energy:      -657.812899  Gnorm:      0.012534  CPU:    0.217
  Cycle:     37 Energy:      -657.813371  Gnorm:      0.012950  CPU:    0.222
  Cycle:     38 Energy:      -657.813731  Gnorm:      0.011383  CPU:    0.226
  Cycle:     39 Energy:      -657.814117  Gnorm:      0.010935  CPU:    0.230
  Cycle:     40 Energy:      -657.814497  Gnorm:      0.013409  CPU:    0.234
  Cycle:     41 Energy:      -657.814952  Gnorm:      0.015568  CPU:    0.239
  Cycle:     42 Energy:      -657.815642  Gnorm:      0.020514  CPU:    0.243
  ** Hessian calculated **
  Cycle:     43 Energy:      -657.816147  Gnorm:      0.012066  CPU:    0.254
  Cycle:     44 Energy:      -657.816450  Gnorm:      0.011127  CPU:    0.259
  Cycle:     45 Energy:      -657.816700  Gnorm:      0.008287  CPU:    0.263
  Cycle:     46 Energy:      -657.816906  Gnorm:      0.007900  CPU:    0.267
  Cycle:     47 Energy:      -657.817100  Gnorm:      0.009240  CPU:    0.271
  Cycle:     48 Energy:      -657.817316  Gnorm:      0.007721  CPU:    0.276
  Cycle:     49 Energy:      -657.817506  Gnorm:      0.008738  CPU:    0.280
  Cycle:     50 Energy:      -657.817669  Gnorm:      0.008685  CPU:    0.284
  Cycle:     51 Energy:      -657.817804  Gnorm:      0.006802  CPU:    0.288
  Cycle:     52 Energy:      -657.817912  Gnorm:      0.009140  CPU:    0.293
  ** Hessian calculated **
  Cycle:     53 Energy:      -657.818005  Gnorm:      0.006140  CPU:    0.304
  Cycle:     54 Energy:      -657.818113  Gnorm:      0.007602  CPU:    0.309
  Cycle:     55 Energy:      -657.818235  Gnorm:      0.007421  CPU:    0.313
  Cycle:     56 Energy:      -657.818369  Gnorm:      0.006460  CPU:    0.318
  Cycle:     57 Energy:      -657.818505  Gnorm:      0.006963  CPU:    0.322
  Cycle:     58 Energy:      -657.818612  Gnorm:      0.005804  CPU:    0.326
  Cycle:     59 Energy:      -657.818724  Gnorm:      0.005875  CPU:    0.330
  Cycle:     60 Energy:      -657.818843  Gnorm:      0.007322  CPU:    0.335
  Cycle:     61 Energy:      -657.818975  Gnorm:      0.007936  CPU:    0.339
  Cycle:     62 Energy:      -657.819164  Gnorm:      0.011503  CPU:    0.343
  ** Hessian calculated **
  Cycle:     63 Energy:      -657.819322  Gnorm:      0.006809  CPU:    0.355
  Cycle:     64 Energy:      -657.819419  Gnorm:      0.006260  CPU:    0.359
  Cycle:     65 Energy:      -657.819499  Gnorm:      0.004729  CPU:    0.363
  Cycle:     66 Energy:      -657.819568  Gnorm:      0.004496  CPU:    0.367
  Cycle:     67 Energy:      -657.819627  Gnorm:      0.004971  CPU:    0.372
  Cycle:     68 Energy:      -657.819693  Gnorm:      0.004402  CPU:    0.376
  Cycle:     69 Energy:      -657.819757  Gnorm:      0.004709  CPU:    0.380
  Cycle:     70 Energy:      -657.819810  Gnorm:      0.004808  CPU:    0.384
  Cycle:     71 Energy:      -657.819852  Gnorm:      0.003884  CPU:    0.389
  Cycle:     72 Energy:      -657.819887  Gnorm:      0.005657  CPU:    0.393
  ** Hessian calculated **
  Cycle:     73 Energy:      -657.819918  Gnorm:      0.003631  CPU:    0.404
  Cycle:     74 Energy:      -657.819954  Gnorm:      0.004375  CPU:    0.409
  Cycle:     75 Energy:      -657.819996  Gnorm:      0.004087  CPU:    0.414
  Cycle:     76 Energy:      -657.820044  Gnorm:      0.003766  CPU:    0.418
  Cycle:     77 Energy:      -657.820088  Gnorm:      0.003864  CPU:    0.422
  Cycle:     78 Energy:      -657.820123  Gnorm:      0.003434  CPU:    0.426
  Cycle:     79 Energy:      -657.820161  Gnorm:      0.003365  CPU:    0.431
  Cycle:     80 Energy:      -657.820200  Gnorm:      0.004208  CPU:    0.435
  Cycle:     81 Energy:      -657.820245  Gnorm:      0.004577  CPU:    0.439
  Cycle:     82 Energy:      -657.820305  Gnorm:      0.006568  CPU:    0.443
  ** Hessian calculated **
  Cycle:     83 Energy:      -657.820358  Gnorm:      0.003990  CPU:    0.455
  Cycle:     84 Energy:      -657.820392  Gnorm:      0.003652  CPU:    0.459
  Cycle:     85 Energy:      -657.820419  Gnorm:      0.002760  CPU:    0.463
  Cycle:     86 Energy:      -657.820443  Gnorm:      0.002699  CPU:    0.467
  Cycle:     87 Energy:      -657.820463  Gnorm:      0.002812  CPU:    0.472
  Cycle:     88 Energy:      -657.820485  Gnorm:      0.002641  CPU:    0.476
  Cycle:     89 Energy:      -657.820508  Gnorm:      0.002665  CPU:    0.480
  Cycle:     90 Energy:      -657.820526  Gnorm:      0.002793  CPU:    0.484
  Cycle:     91 Energy:      -657.820541  Gnorm:      0.002249  CPU:    0.489
  Cycle:     92 Energy:      -657.820553  Gnorm:      0.003532  CPU:    0.493
  ** Hessian calculated **
  Cycle:     93 Energy:      -657.820593  Gnorm:      0.003297  CPU:    0.508
  ** Hessian calculated **
  Cycle:     94 Energy:      -657.820603  Gnorm:      0.002022  CPU:    0.519
  Cycle:     95 Energy:      -657.820615  Gnorm:      0.002409  CPU:    0.525
  Cycle:     96 Energy:      -657.820627  Gnorm:      0.002226  CPU:    0.529
  Cycle:     97 Energy:      -657.820643  Gnorm:      0.002129  CPU:    0.533
  Cycle:     98 Energy:      -657.820656  Gnorm:      0.002070  CPU:    0.537
  Cycle:     99 Energy:      -657.820667  Gnorm:      0.001967  CPU:    0.542
  Cycle:    100 Energy:      -657.820679  Gnorm:      0.001867  CPU:    0.546
  Cycle:    101 Energy:      -657.820691  Gnorm:      0.002363  CPU:    0.550
  Cycle:    102 Energy:      -657.820705  Gnorm:      0.002497  CPU:    0.554
  Cycle:    103 Energy:      -657.820723  Gnorm:      0.003677  CPU:    0.559
  ** Hessian calculated **
  Cycle:    104 Energy:      -657.820740  Gnorm:      0.002217  CPU:    0.570
  Cycle:    105 Energy:      -657.820750  Gnorm:      0.002026  CPU:    0.574
  Cycle:    106 Energy:      -657.820759  Gnorm:      0.001544  CPU:    0.578
  Cycle:    107 Energy:      -657.820766  Gnorm:      0.001546  CPU:    0.583
  Cycle:    108 Energy:      -657.820772  Gnorm:      0.001538  CPU:    0.587
  Cycle:    109 Energy:      -657.820779  Gnorm:      0.001490  CPU:    0.591
  Cycle:    110 Energy:      -657.820787  Gnorm:      0.001467  CPU:    0.595
  Cycle:    111 Energy:      -657.820792  Gnorm:      0.001557  CPU:    0.600
  Cycle:    112 Energy:      -657.820797  Gnorm:      0.001242  CPU:    0.604
  Cycle:    113 Energy:      -657.820801  Gnorm:      0.002057  CPU:    0.608
  ** Hessian calculated **
  Cycle:    114 Energy:      -657.820804  Gnorm:      0.001194  CPU:    0.619
  Cycle:    115 Energy:      -657.820808  Gnorm:      0.001418  CPU:    0.625
  Cycle:    116 Energy:      -657.820813  Gnorm:      0.001314  CPU:    0.629
  Cycle:    117 Energy:      -657.820818  Gnorm:      0.001261  CPU:    0.633
  Cycle:    118 Energy:      -657.820823  Gnorm:      0.001236  CPU:    0.637
  Cycle:    119 Energy:      -657.820827  Gnorm:      0.001161  CPU:    0.642
  Cycle:    120 Energy:      -657.820831  Gnorm:      0.001115  CPU:    0.646
  Cycle:    121 Energy:      -657.820835  Gnorm:      0.001403  CPU:    0.650
  Cycle:    122 Energy:      -657.820840  Gnorm:      0.001462  CPU:    0.654
  Cycle:    123 Energy:      -657.820847  Gnorm:      0.002165  CPU:    0.658
  ** Hessian calculated **
  Cycle:    124 Energy:      -657.820852  Gnorm:      0.001318  CPU:    0.670
  Cycle:    125 Energy:      -657.820856  Gnorm:      0.001201  CPU:    0.674
  Cycle:    126 Energy:      -657.820859  Gnorm:      0.000929  CPU:    0.678
  Cycle:    127 Energy:      -657.820862  Gnorm:      0.000914  CPU:    0.683
  Cycle:    128 Energy:      -657.820864  Gnorm:      0.000921  CPU:    0.687
  Cycle:    129 Energy:      -657.820866  Gnorm:      0.000886  CPU:    0.691
  Cycle:    130 Energy:      -657.820869  Gnorm:      0.000874  CPU:    0.695
  Cycle:    131 Energy:      -657.820871  Gnorm:      0.000917  CPU:    0.699
  Cycle:    132 Energy:      -657.820873  Gnorm:      0.000737  CPU:    0.704
  Cycle:    133 Energy:      -657.820874  Gnorm:      0.001260  CPU:    0.708
  ** Hessian calculated **
  Cycle:    134 Energy:      -657.820875  Gnorm:      0.000711  CPU:    0.719
  Cycle:    135 Energy:      -657.820877  Gnorm:      0.000724  CPU:    0.724
  Cycle:    136 Energy:      -657.820878  Gnorm:      0.000783  CPU:    0.728
  Cycle:    137 Energy:      -657.820880  Gnorm:      0.000764  CPU:    0.732
  Cycle:    138 Energy:      -657.820882  Gnorm:      0.000753  CPU:    0.736
  Cycle:    139 Energy:      -657.820883  Gnorm:      0.000672  CPU:    0.740
  Cycle:    140 Energy:      -657.820885  Gnorm:      0.000709  CPU:    0.745
  Cycle:    141 Energy:      -657.820886  Gnorm:      0.000832  CPU:    0.749
  Cycle:    142 Energy:      -657.820888  Gnorm:      0.000824  CPU:    0.753
  Cycle:    143 Energy:      -657.820890  Gnorm:      0.001349  CPU:    0.757
  ** Hessian calculated **
  Cycle:    144 Energy:      -657.820892  Gnorm:      0.000814  CPU:    0.769
  Cycle:    145 Energy:      -657.820893  Gnorm:      0.000753  CPU:    0.773
  Cycle:    146 Energy:      -657.820894  Gnorm:      0.000578  CPU:    0.777
  Cycle:    147 Energy:      -657.820895  Gnorm:      0.000560  CPU:    0.781
  Cycle:    148 Energy:      -657.820896  Gnorm:      0.000564  CPU:    0.786
  Cycle:    149 Energy:      -657.820897  Gnorm:      0.000508  CPU:    0.790
  Cycle:    150 Energy:      -657.820898  Gnorm:      0.000533  CPU:    0.794
  Cycle:    151 Energy:      -657.820899  Gnorm:      0.000496  CPU:    0.798
  Cycle:    152 Energy:      -657.820899  Gnorm:      0.000433  CPU:    0.803
  Cycle:    153 Energy:      -657.820900  Gnorm:      0.000693  CPU:    0.807
  ** Hessian calculated **
  Cycle:    154 Energy:      -657.820900  Gnorm:      0.000418  CPU:    0.818


  **** Optimisation achieved ****


  Final energy =    -657.82090075 eV      
  Final Gnorm  =       0.00041829

  Components of energy : 

--------------------------------------------------------------------------------
  Interatomic potentials     =          83.64258259 eV    
  Monopole - monopole (real) =        -155.22476443 eV    
  Monopole - monopole (recip)=        -582.24168554 eV    
  Monopole - monopole (total)=        -737.46644997 eV    
  Dispersion (real+recip)    =          -3.99703336 eV    
--------------------------------------------------------------------------------
  Total lattice energy       =        -657.82090075 eV    
--------------------------------------------------------------------------------
  Total lattice energy       =          -63469.6612 kJ/(mole unit cells)
--------------------------------------------------------------------------------

  Final fractional coordinates of atoms :

--------------------------------------------------------------------------------
   No.  Atomic        x           y          z          Radius
        Label       (Frac)      (Frac)     (Frac)       (Angs) 
--------------------------------------------------------------------------------
     1  Ca    c     0.886802    0.229860    0.250249    0.000000
     2  Ca    c     0.386807    0.729864    0.750250    0.000000
     3  Sr    c     0.886802    0.229860    0.250249    0.000000
     4  Sr    c     0.386807    0.729864    0.750250    0.000000
     5  Ca    c     0.386822    0.729857    0.250245    0.000000
     6  Ca    c     0.886818    0.229849    0.750247    0.000000
     7  Sr    c     0.386822    0.729857    0.250245    0.000000
     8  Sr    c     0.886818    0.229849    0.750247    0.000000
     9  Ti    c     0.886798    0.729872    0.000273    0.000000
    10  Ti    c     0.386806    0.229875    0.000273    0.000000
    11  Ti    c     0.386798    0.229876    0.500269    0.000000
    12  Ti    c     0.886806    0.729874    0.500269    0.000000
    13  O1    c     0.886369    0.729888    0.250273    0.000000
    14  O1    c     0.386369    0.229890    0.750273    0.000000
    15  O2    c     0.136668    0.980010    0.000493    0.000000
    16  O2    c     0.636676    0.979749    0.000075    0.000000
    17  O2    c     0.636688    0.979746    0.500501    0.000000
    18  O2    c     0.136674    0.980019    0.500082    0.000000
    19  O3    c     0.887217    0.729885    0.750274    0.000000
    20  O3    c     0.387218    0.229884    0.250274    0.000000
    21  O4    c     0.636921    0.479760    0.000085    0.000000
    22  O4    c     0.136929    0.480008    0.000503    0.000000
    23  O4    c     0.136918    0.480012    0.500068    0.000000
    24  O4    c     0.636912    0.479751    0.500487    0.000000
    25  O1    s     0.886399    0.729887    0.250276    0.000000
    26  O1    s     0.386398    0.229889    0.750276    0.000000
    27  O2    s     0.136677    0.980004    0.000478    0.000000
    28  O2    s     0.636682    0.979759    0.000088    0.000000
    29  O2    s     0.636697    0.979751    0.500485    0.000000
    30  O2    s     0.136687    0.980013    0.500093    0.000000
    31  O3    s     0.887192    0.729885    0.750275    0.000000
    32  O3    s     0.387192    0.229883    0.250276    0.000000
    33  O4    s     0.636910    0.479767    0.000096    0.000000
    34  O4    s     0.136919    0.480001    0.000487    0.000000
    35  O4    s     0.136902    0.480009    0.500083    0.000000
    36  O4    s     0.636903    0.479758    0.500474    0.000000
--------------------------------------------------------------------------------

  Final internal derivatives :

--------------------------------------------------------------------------------
   No.  Atomic          a             b             c           Radius
        Label          (eV)          (eV)          (eV)        (eV/Angs)
--------------------------------------------------------------------------------
      1 Ca    c      -0.001082     -0.001214     -0.002966      0.000000
      2 Ca    c       0.000752     -0.000613     -0.000300      0.000000
      3 Sr    c       0.000000      0.000000      0.000000      0.000000
      4 Sr    c       0.000000      0.000000      0.000000      0.000000
      5 Ca    c       0.001492      0.000105     -0.002833      0.000000
      6 Ca    c      -0.000338     -0.000514     -0.000045      0.000000
      7 Sr    c       0.000000      0.000000      0.000000      0.000000
      8 Sr    c       0.000000      0.000000      0.000000      0.000000
      9 Ti    c      -0.007338     -0.004044      0.000899      0.000000
     10 Ti    c       0.008486     -0.003155      0.000762      0.000000
     11 Ti    c      -0.003895      0.000956     -0.006117      0.000000
     12 Ti    c       0.005000      0.000835     -0.006007      0.000000
     13 O1    c      -0.007043      0.000733     -0.008087      0.000000
     14 O1    c      -0.004603      0.000646     -0.004095      0.000000
     15 O2    c       0.000122     -0.002535      0.005763      0.000000
     16 O2    c       0.001219     -0.002558     -0.002195      0.000000
     17 O2    c       0.003161     -0.001786      0.005539      0.000000
     18 O2    c      -0.001525      0.002830     -0.000846      0.000000
     19 O3    c      -0.000258      0.000385      0.003043      0.000000
     20 O3    c       0.002270      0.000180     -0.000970      0.000000
     21 O4    c       0.008686      0.001785      0.003344      0.000000
     22 O4    c      -0.000938      0.003734      0.009439      0.000000
     23 O4    c       0.005196      0.000366     -0.006856      0.000000
     24 O4    c      -0.004797     -0.004517      0.001325      0.000000
     25 O1    s       0.000250     -0.001131      0.006391      0.000000
     26 O1    s      -0.004348     -0.000311      0.000308      0.000000
     27 O2    s      -0.003691      0.006661      0.002635      0.000000
     28 O2    s      -0.001531     -0.001725     -0.000792      0.000000
     29 O2    s       0.001581     -0.007433      0.006857      0.000000
     30 O2    s      -0.000520      0.002056      0.001017      0.000000
     31 O3    s       0.007208      0.002358     -0.009900      0.000000
     32 O3    s       0.002723      0.003007     -0.003678      0.000000
     33 O4    s      -0.007987     -0.000530     -0.004072      0.000000
     34 O4    s       0.004647     -0.001615      0.001644      0.000000
     35 O4    s      -0.008307      0.005296      0.003457      0.000000
     36 O4    s       0.005405      0.001747      0.007336      0.000000
--------------------------------------------------------------------------------
  Maximum abs         0.008686      0.007433      0.009900      0.000000
--------------------------------------------------------------------------------


  Born effective charge tensors : 

-------------------------------------------------------------------------------
  Atom             x           y             z
-------------------------------------------------------------------------------
    1 Ca    x       0.5862     -0.0000     -0.0000
            y      -0.0000      0.5862      0.0000
            z      -0.0000      0.0000      0.5862
-------------------------------------------------------------------------------
    2 Ca    x       0.5862      0.0000     -0.0000
            y       0.0000      0.5862     -0.0000
            z      -0.0000     -0.0000      0.5862
-------------------------------------------------------------------------------
    3 Sr    x       1.7479     -0.0000     -0.0000
            y      -0.0000      1.7479      0.0000
            z      -0.0000      0.0000      1.7477
-------------------------------------------------------------------------------
    4 Sr    x       1.7479      0.0000     -0.0000
            y       0.0000      1.7479     -0.0000
            z      -0.0000     -0.0000      1.7477
-------------------------------------------------------------------------------
    5 Ca    x       0.5862      0.0000      0.0000
            y       0.0000      0.5862     -0.0000
            z       0.0000      0.0000      0.5862
-------------------------------------------------------------------------------
    6 Ca    x       0.5862     -0.0000      0.0000
            y      -0.0000      0.5862     -0.0000
            z       0.0000     -0.0000      0.5862
-------------------------------------------------------------------------------
    7 Sr    x       1.7479      0.0000      0.0000
            y       0.0000      1.7479     -0.0000
            z       0.0000      0.0000      1.7477
-------------------------------------------------------------------------------
    8 Sr    x       1.7479     -0.0001      0.0000
            y      -0.0000      1.7479     -0.0000
            z       0.0000     -0.0000      1.7477
-------------------------------------------------------------------------------
    9 Ti    x       3.6767      0.0006      0.0014
            y      -0.0005      3.6766     -0.0001
            z      -0.0015     -0.0000      3.6654
-------------------------------------------------------------------------------
   10 Ti    x       3.6766     -0.0006     -0.0014
            y       0.0005      3.6767      0.0001
            z       0.0015      0.0000      3.6654
-------------------------------------------------------------------------------
   11 Ti    x       3.6768     -0.0011      0.0014
            y      -0.0001      3.6767     -0.0001
            z      -0.0015     -0.0001      3.6654
-------------------------------------------------------------------------------
   12 Ti    x       3.6765      0.0011     -0.0014
            y       0.0001      3.6765      0.0001
            z       0.0015      0.0001      3.6653
-------------------------------------------------------------------------------
   13 O1    x      -1.6652     -0.0002      0.0000
            y       0.0002     -1.6652     -0.0000
            z      -0.0000     -0.0000     -2.6699
-------------------------------------------------------------------------------
   14 O1    x      -1.6652      0.0002      0.0000
            y      -0.0002     -1.6653      0.0000
            z      -0.0000      0.0000     -2.6700
-------------------------------------------------------------------------------
   15 O2    x      -2.1729     -0.5068     -0.0000
            y      -0.5069     -2.1728      0.0000
            z      -0.0000      0.0000     -1.6646
-------------------------------------------------------------------------------
   16 O2    x      -2.1727      0.5068      0.0000
            y       0.5067     -2.1727      0.0000
            z       0.0000     -0.0000     -1.6646
-------------------------------------------------------------------------------
   17 O2    x      -2.1728      0.5068     -0.0000
            y       0.5069     -2.1728     -0.0000
            z      -0.0000      0.0000     -1.6647
-------------------------------------------------------------------------------
   18 O2    x      -2.1727     -0.5068      0.0000
            y      -0.5067     -2.1727     -0.0000
            z       0.0000      0.0000     -1.6646
-------------------------------------------------------------------------------
   19 O3    x      -1.6653     -0.0002     -0.0000
            y       0.0002     -1.6653      0.0000
            z       0.0000      0.0000     -2.6700
-------------------------------------------------------------------------------
   20 O3    x      -1.6652      0.0002     -0.0000
            y      -0.0002     -1.6652     -0.0000
            z       0.0000     -0.0000     -2.6699
-------------------------------------------------------------------------------
   21 O4    x      -2.1727     -0.5067     -0.0000
            y      -0.5067     -2.1727     -0.0000
            z      -0.0000     -0.0000     -1.6646
-------------------------------------------------------------------------------
   22 O4    x      -2.1728      0.5068      0.0000
            y       0.5068     -2.1728      0.0000
            z       0.0000     -0.0000     -1.6646
-------------------------------------------------------------------------------
   23 O4    x      -2.1727      0.5067     -0.0000
            y       0.5067     -2.1727     -0.0000
            z      -0.0000      0.0000     -1.6646
-------------------------------------------------------------------------------
   24 O4    x      -2.1728     -0.5068      0.0000
            y      -0.5068     -2.1728     -0.0000
            z       0.0000     -0.0000     -1.6647
-------------------------------------------------------------------------------




  Elastic Constant Matrix: (Units=GPa)

-------------------------------------------------------------------------------
  Indices      1         2         3         4         5         6    
-------------------------------------------------------------------------------
       1    446.7251   89.3376  140.3342   -0.0000    0.0001    0.0001
       2     89.3376  446.7242  140.3340   -0.0000    0.0000    0.0001
       3    140.3342  140.3340  397.7678   -0.0000    0.0000    0.0001
       4     -0.0000   -0.0000   -0.0000  178.4820    0.0000    0.0000
       5      0.0001    0.0000    0.0000    0.0000  178.4817    0.0000
       6      0.0001    0.0001    0.0001    0.0000    0.0000  127.5804
-------------------------------------------------------------------------------


  Elastic Compliance Matrix: (Units=1/GPa)

-------------------------------------------------------------------------------
  Indices      1         2         3         4         5         6    
-------------------------------------------------------------------------------
       1    0.002543 -0.000255 -0.000807  0.000000 -0.000000 -0.000000
       2   -0.000255  0.002543 -0.000807  0.000000 -0.000000 -0.000000
       3   -0.000807 -0.000807  0.003084  0.000000 -0.000000 -0.000000
       4    0.000000  0.000000  0.000000  0.005603 -0.000000 -0.000000
       5   -0.000000 -0.000000 -0.000000 -0.000000  0.005603 -0.000000
       6   -0.000000 -0.000000 -0.000000 -0.000000 -0.000000  0.007838
-------------------------------------------------------------------------------

  Mechanical properties :

-------------------------------------------------------------------------------
  Convention :                    Reuss         Voigt         Hill
-------------------------------------------------------------------------------
  Bulk  Modulus (GPa)     =     225.69087     225.69207     225.69147
  Shear Modulus (GPa)     =     154.18015     158.32289     156.25152
-------------------------------------------------------------------------------
  Velocity S-wave (km/s)  =       5.59314       5.66778       5.63059
  Velocity P-wave (km/s)  =       9.35434       9.41407       9.38425
-------------------------------------------------------------------------------
  Compressibility (1/GPa) =    0.00443084
-------------------------------------------------------------------------------
  Stress axis :                     x             y             z
-------------------------------------------------------------------------------
  Youngs Moduli (GPa)     =     393.22127     393.22051     324.29255
-------------------------------------------------------------------------------
  Poissons Ratio (x)      =                     0.10027       0.26179
  Poissons Ratio (y)      =       0.10027                     0.26179
  Poissons Ratio (z)      =       0.31743       0.31743
-------------------------------------------------------------------------------


  Piezoelectric Strain Matrix: (Units=C/m**2)

-------------------------------------------------------------------------------
  Indices      1         2         3         4         5         6    
-------------------------------------------------------------------------------
       x     0.02785   0.00503   0.00929   0.00009  -0.03346  -0.01175
       y    -0.01159  -0.04703  -0.01736  -0.03345   0.00009   0.00455
       z    -0.03292  -0.03294  -0.06933  -0.01746   0.01013   0.00020
-------------------------------------------------------------------------------


  Piezoelectric Stress Matrix: (Units=10**-11 C/N)

-------------------------------------------------------------------------------
  Indices      1         2         3         4         5         6    
-------------------------------------------------------------------------------
       x     0.00620  -0.00018   0.00021   0.00005  -0.01875  -0.00921
       y    -0.00035  -0.01026  -0.00062  -0.01874   0.00005   0.00357
       z    -0.00194  -0.00194  -0.01606  -0.00978   0.00568   0.00015
-------------------------------------------------------------------------------


  Static dielectric constant tensor : 

-------------------------------------------------------------------------------
              x         y         z
-------------------------------------------------------------------------------
       x    23.48470  -0.00004  -0.00001
       y    -0.00004  23.48688  -0.00003
       z    -0.00001  -0.00003  23.20099
--------------------------------------------------------------------------------

  High frequency dielectric constant tensor : 

-------------------------------------------------------------------------------
              x         y         z
-------------------------------------------------------------------------------
       x     2.52685  -0.00000   0.00000
       y    -0.00000   2.52685  -0.00000
       z     0.00000  -0.00000   2.52476
-------------------------------------------------------------------------------

  Static refractive indices : 

-------------------------------------------------------------------------------
    1 =    4.81674      2 =    4.84610      3 =    4.84633
-------------------------------------------------------------------------------

  High frequency refractive indices : 

-------------------------------------------------------------------------------
    1 =    1.58895      2 =    1.58961      3 =    1.58961
-------------------------------------------------------------------------------


  Phonon Calculation : 

  Eigenvectors will be output with mass-weighting and unphased 

  Number of k points for this configuration =        8

--------------------------------------------------------------------------------
 (Core) Atomic information:
--------------------------------------------------------------------------------
Atom  1(CaSr):
  Mass     =  0.1258E-24 kg
  bbar     =  0.6455E-04 Ang
  sigma_inc     =  0.5362E-09 Ang^2
  Sigma_coh     =  0.5236E-07 Ang^2
  Cartesian  position =   4.85080898    1.25733176    1.93442209  Ang
  Fractional position =   0.88680237    0.22985955    0.25024865
Atom  2(CaSr):
  Mass     =  0.1258E-24 kg
  bbar     =  0.6455E-04 Ang
  sigma_inc     =  0.5362E-09 Ang^2
  Sigma_coh     =  0.5236E-07 Ang^2
  Cartesian  position =   2.11583426    3.99235498    5.79943363  Ang
  Fractional position =   0.38680699    0.72986380    0.75025015
Atom  3(CaSr):
  Mass     =  0.1258E-24 kg
  bbar     =  0.6455E-04 Ang
  sigma_inc     =  0.5362E-09 Ang^2
  Sigma_coh     =  0.5236E-07 Ang^2
  Cartesian  position =   2.11591519    3.99231851    1.93439063  Ang
  Fractional position =   0.38682179    0.72985713    0.25024458
Atom  4(CaSr):
  Mass     =  0.1258E-24 kg
  bbar     =  0.6455E-04 Ang
  sigma_inc     =  0.5362E-09 Ang^2
  Sigma_coh     =  0.5236E-07 Ang^2
  Cartesian  position =   4.85089349    1.25727451    5.79940701  Ang
  Fractional position =   0.88681782    0.22984909    0.75024670
Atom  5(Ti):
  Mass     =  0.7951E-25 kg
  bbar     = -0.3438E-04 Ang
  sigma_inc     =  0.2865E-07 Ang^2
  Sigma_coh     =  0.1485E-07 Ang^2
  Cartesian  position =   4.85078389    3.99240252    0.00210731  Ang
  Fractional position =   0.88679779    0.72987249    0.00027261
Atom  6(Ti):
  Mass     =  0.7951E-25 kg
  bbar     = -0.3438E-04 Ang
  sigma_inc     =  0.2865E-07 Ang^2
  Sigma_coh     =  0.1485E-07 Ang^2
  Cartesian  position =   2.11582658    1.25741675    0.00210649  Ang
  Fractional position =   0.38680559    0.22987509    0.00027251
Atom  7(Ti):
  Mass     =  0.7951E-25 kg
  bbar     = -0.3438E-04 Ang
  sigma_inc     =  0.2865E-07 Ang^2
  Sigma_coh     =  0.1485E-07 Ang^2
  Cartesian  position =   2.11578361    1.25742307    3.86708209  Ang
  Fractional position =   0.38679773    0.22987625    0.50026935
Atom  8(Ti):
  Mass     =  0.7951E-25 kg
  bbar     = -0.3438E-04 Ang
  sigma_inc     =  0.2865E-07 Ang^2
  Sigma_coh     =  0.1485E-07 Ang^2
  Cartesian  position =   4.85082689    3.99241152    3.86708280  Ang
  Fractional position =   0.88680565    0.72987413    0.50026944
Atom  9(O1):
  Mass     =  0.2657E-25 kg
  bbar     =  0.5803E-04 Ang
  sigma_inc     =  0.2987E-11 Ang^2
  Sigma_coh     =  0.4232E-07 Ang^2
  Cartesian  position =   4.84843788    3.99248781    1.93460694  Ang
  Fractional position =   0.88636890    0.72988808    0.25027257
Atom 10(O1):
  Mass     =  0.2657E-25 kg
  bbar     =  0.5803E-04 Ang
  sigma_inc     =  0.2987E-11 Ang^2
  Sigma_coh     =  0.4232E-07 Ang^2
  Cartesian  position =   2.11343611    1.25749855    5.79960916  Ang
  Fractional position =   0.38636858    0.22989005    0.75027285
Atom 11(O2):
  Mass     =  0.2657E-25 kg
  bbar     =  0.5803E-04 Ang
  sigma_inc     =  0.2987E-11 Ang^2
  Sigma_coh     =  0.4232E-07 Ang^2
  Cartesian  position =   0.74757595    5.36065444    0.00380814  Ang
  Fractional position =   0.13666836    0.98000995    0.00049264
Atom 12(O2):
  Mass     =  0.2657E-25 kg
  bbar     =  0.5803E-04 Ang
  sigma_inc     =  0.2987E-11 Ang^2
  Sigma_coh     =  0.4232E-07 Ang^2
  Cartesian  position =   3.48261789    5.35922738    0.00057713  Ang
  Fractional position =   0.63667603    0.97974906    0.00007466
Atom 13(O2):
  Mass     =  0.2657E-25 kg
  bbar     =  0.5803E-04 Ang
  sigma_inc     =  0.2987E-11 Ang^2
  Sigma_coh     =  0.4232E-07 Ang^2
  Cartesian  position =   3.48268595    5.35920795    3.86887061  Ang
  Fractional position =   0.63668847    0.97974551    0.50050073
Atom 14(O2):
  Mass     =  0.2657E-25 kg
  bbar     =  0.5803E-04 Ang
  sigma_inc     =  0.2987E-11 Ang^2
  Sigma_coh     =  0.4232E-07 Ang^2
  Cartesian  position =   0.74760662    5.36070174    3.86563160  Ang
  Fractional position =   0.13667397    0.98001860    0.50008171
Atom 15(O3):
  Mass     =  0.2657E-25 kg
  bbar     =  0.5803E-04 Ang
  sigma_inc     =  0.2987E-11 Ang^2
  Sigma_coh     =  0.4232E-07 Ang^2
  Cartesian  position =   4.85307827    3.99247330    5.79961740  Ang
  Fractional position =   0.88721723    0.72988543    0.75027392
Atom 16(O3):
  Mass     =  0.2657E-25 kg
  bbar     =  0.5803E-04 Ang
  sigma_inc     =  0.2987E-11 Ang^2
  Sigma_coh     =  0.4232E-07 Ang^2
  Cartesian  position =   2.11808250    1.25746660    1.93461505  Ang
  Fractional position =   0.38721801    0.22988421    0.25027362
Atom 17(O4):
  Mass     =  0.2657E-25 kg
  bbar     =  0.5803E-04 Ang
  sigma_inc     =  0.2987E-11 Ang^2
  Sigma_coh     =  0.4232E-07 Ang^2
  Cartesian  position =   3.48395856    2.62428721    0.00066009  Ang
  Fractional position =   0.63692113    0.47976000    0.00008539
Atom 18(O4):
  Mass     =  0.2657E-25 kg
  bbar     =  0.5803E-04 Ang
  sigma_inc     =  0.2987E-11 Ang^2
  Sigma_coh     =  0.4232E-07 Ang^2
  Cartesian  position =   0.74900020    2.62564620    0.00389069  Ang
  Fractional position =   0.13692874    0.48000845    0.00050332
Atom 19(O4):
  Mass     =  0.2657E-25 kg
  bbar     =  0.5803E-04 Ang
  sigma_inc     =  0.2987E-11 Ang^2
  Sigma_coh     =  0.4232E-07 Ang^2
  Cartesian  position =   0.74894053    2.62566331    3.86552344  Ang
  Fractional position =   0.13691783    0.48001157    0.50006772
Atom 20(O4):
  Mass     =  0.2657E-25 kg
  bbar     =  0.5803E-04 Ang
  sigma_inc     =  0.2987E-11 Ang^2
  Sigma_coh     =  0.4232E-07 Ang^2
  Cartesian  position =   3.48390644    2.62424036    3.86876760  Ang
  Fractional position =   0.63691160    0.47975144    0.50048740
--------------------------------------------------------------------------------
  Start of PDF calculation
--------------------------------------------------------------------------------

  PDF information:

  Maximum radius        =  6.000 Ang
  Number density        =  0.086 Ang(^-3)
  (Sum{c_i bbar_i} )^2  =  0.1669E-08

  Using primitive cell parameters   5.4700   5.4700   7.7300
  Testing primitive vectors with x,y,z=-(n+1) to n, n=    2
[width output suppressed by keyword nowidth]
  PDF statistics:

  Maximum width^2  was  0.2438E-01 Ang^2
  Number of pairs      1480
  Angular frequency range used:
   0.163315E+14 to  0.153887E+15 rad/s 
   0.259924E+01 to  0.244918E+02 THz   

  PDF output being written to example46_Cap25Srp75TiO3.pdfs
--------------------------------------------------------------------------------
  End of PDF calculation
--------------------------------------------------------------------------------

--------------------------------------------------------------------------------
  Phonon properties (per mole of unit cells): Temperature =      0.000 K
--------------------------------------------------------------------------------
  Zero point energy             =        1.358636 eV
--------------------------------------------------------------------------------

  Phonon density of states : 

--------------------------------------------------------------------------------
 Frequency (cm-1) Density of States                                             
--------------------------------------------------------------------------------
    0.00000 |                                                              0.000
   12.76500 |                                                              0.000
   25.53000 |                                                              0.000
   38.29500 |                                                              0.000
   51.06001 |                                                              0.000
   63.82501 |                                                              0.000
   76.59001 |************                                                  0.017
   89.35501 |************************************************************  0.083
  102.12001 |************************************                          0.050
  114.88501 |************************                                      0.033
  127.65002 |************                                                  0.017
  140.41502 |************                                                  0.017
  153.18002 |************************                                      0.033
  165.94502 |                                                              0.000
  178.71002 |************************************************              0.067
  191.47502 |************                                                  0.017
  204.24003 |                                                              0.000
  217.00503 |                                                              0.000
  229.77003 |************                                                  0.017
  242.53503 |************************************                          0.050
  255.30003 |************                                                  0.017
  268.06503 |                                                              0.000
  280.83003 |************************************                          0.050
  293.59504 |                                                              0.000
  306.36004 |************                                                  0.017
  319.12504 |************                                                  0.017
  331.89004 |                                                              0.000
  344.65504 |                                                              0.000
  357.42004 |************                                                  0.017
  370.18505 |************************                                      0.033
  382.95005 |************************                                      0.033
  395.71505 |************************                                      0.033
  408.48005 |************                                                  0.017
  421.24505 |                                                              0.000
  434.01005 |************************                                      0.033
  446.77506 |************                                                  0.017
  459.54006 |                                                              0.000
  472.30506 |                                                              0.000
  485.07006 |************                                                  0.017
  497.83506 |************                                                  0.017
  510.60006 |                                                              0.000
  523.36507 |************                                                  0.017
  536.13007 |************                                                  0.017
  548.89507 |************                                                  0.017
  561.66007 |                                                              0.000
  574.42507 |************************************                          0.050
  587.19007 |************************                                      0.033
  599.95507 |************                                                  0.017
  612.72008 |                                                              0.000
  625.48508 |                                                              0.000
  638.25008 |                                                              0.000
  651.01508 |************************                                      0.033
  663.78008 |                                                              0.000
  676.54508 |************************                                      0.033
  689.31009 |                                                              0.000
  702.07509 |                                                              0.000
  714.84009 |                                                              0.000
  727.60509 |                                                              0.000
  740.37009 |                                                              0.000
  753.13509 |                                                              0.000
  765.90010 |                                                              0.000
  778.66510 |                                                              0.000
  791.43010 |************************************                          0.050
  804.19510 |************                                                  0.017
--------------------------------------------------------------------------------



  Time to end of optimisation =       0.9281 seconds


********************************************************************************
*  Output for configuration   2 : CaSr(TiO3)2                                  *
********************************************************************************


  Components of energy : 

--------------------------------------------------------------------------------
  Interatomic potentials     =          82.40857868 eV    
  Monopole - monopole (real) =        -333.31948584 eV    
  Monopole - monopole (recip)=        -400.64827490 eV    
  Monopole - monopole (total)=        -733.96776074 eV    
  Dispersion (real+recip)    =          -3.87599781 eV    
--------------------------------------------------------------------------------
  Total lattice energy       =        -655.43517987 eV    
--------------------------------------------------------------------------------
  Total lattice energy       =          -63239.4756 kJ/(mole unit cells)
--------------------------------------------------------------------------------


  Number of variables =       93

  Maximum number of calculations  =          1000
  Maximum Hessian update interval =            10
  Maximum step size               =   1.000000000
  Maximum parameter tolerance     =   0.000010000
  Maximum function  tolerance     =   0.000010000
  Maximum gradient  tolerance     =   0.001000000
  Maximum gradient  component     =   0.010000000

  Cell parameters to be optimised using strains

  Newton-Raphson optimiser to be used

  BFGS hessian update to be used

  Lower half triangular hessian to be used

  Start of bulk optimisation :

  Cycle:      0 Energy:      -655.435180  Gnorm:      0.749131  CPU:    0.934
  ** Hessian calculated **
  Cycle:      1 Energy:      -656.612352  Gnorm:      0.085940  CPU:    0.938
  Cycle:      2 Energy:      -656.673124  Gnorm:      0.051023  CPU:    0.942
  Cycle:      3 Energy:      -656.724075  Gnorm:      0.040804  CPU:    0.947
  Cycle:      4 Energy:      -656.737759  Gnorm:      0.016674  CPU:    0.950
  Cycle:      5 Energy:      -656.739983  Gnorm:      0.010571  CPU:    0.954
  Cycle:      6 Energy:      -656.740230  Gnorm:      0.001698  CPU:    0.957
  Cycle:      7 Energy:      -656.740249  Gnorm:      0.000956  CPU:    0.961


  **** Optimisation achieved ****


  Final energy =    -656.74025397 eV      
  Final Gnorm  =       0.00044429

  Components of energy : 

--------------------------------------------------------------------------------
  Interatomic potentials     =          84.72337160 eV    
  Monopole - monopole (real) =        -155.22489986 eV    
  Monopole - monopole (recip)=        -582.24168553 eV    
  Monopole - monopole (total)=        -737.46658538 eV    
  Dispersion (real+recip)    =          -3.99704019 eV    
--------------------------------------------------------------------------------
  Total lattice energy       =        -656.74025397 eV    
--------------------------------------------------------------------------------
  Total lattice energy       =          -63365.3953 kJ/(mole unit cells)
--------------------------------------------------------------------------------

  Final fractional coordinates of atoms :

--------------------------------------------------------------------------------
   No.  Atomic        x           y          z          Radius
        Label       (Frac)      (Frac)     (Frac)       (Angs) 
--------------------------------------------------------------------------------
     1  Ca    c     0.950000    0.263000    0.250000    0.000000
     2  Ca    c     0.450000    0.763101    0.750000    0.000000
     3  Sr    c     0.449969    0.763061    0.250000    0.000000
     4  Sr    c     0.949969    0.263040    0.750000    0.000000
     5  Ti    c     0.949995    0.763046    0.999997    0.000000
     6  Ti    c     0.449995    0.263055    0.000003    0.000000
     7  Ti    c     0.449995    0.263055    0.499997    0.000000
     8  Ti    c     0.949995    0.763046    0.500003    0.000000
     9  O1    c     0.950058    0.763062    0.250000    0.000000
    10  O1    c     0.450058    0.263039    0.750000    0.000000
    11  O2    c     0.199939    0.013110    0.999988    0.000000
    12  O2    c     0.699939    0.012991    0.000012    0.000000
    13  O2    c     0.699939    0.012991    0.499988    0.000000
    14  O2    c     0.199939    0.013110    0.500012    0.000000
    15  O3    c     0.949974    0.763061    0.750000    0.000000
    16  O3    c     0.449974    0.263040    0.250000    0.000000
    17  O4    c     0.700045    0.513002    0.000020    0.000000
    18  O4    c     0.200045    0.513099    0.999980    0.000000
    19  O4    c     0.200045    0.513099    0.500020    0.000000
    20  O4    c     0.700045    0.513002    0.499980    0.000000
    21  O1    s     0.950055    0.763062    0.250000    0.000000
    22  O1    s     0.450055    0.263039    0.750000    0.000000
    23  O2    s     0.199945    0.013104    0.999987    0.000000
    24  O2    s     0.699945    0.012997    0.000013    0.000000
    25  O2    s     0.699945    0.012997    0.499987    0.000000
    26  O2    s     0.199945    0.013104    0.500013    0.000000
    27  O3    s     0.949975    0.763061    0.750000    0.000000
    28  O3    s     0.449975    0.263040    0.250000    0.000000
    29  O4    s     0.700044    0.513005    0.000016    0.000000
    30  O4    s     0.200044    0.513096    0.999984    0.000000
    31  O4    s     0.200044    0.513096    0.500016    0.000000
    32  O4    s     0.700044    0.513005    0.499984    0.000000
--------------------------------------------------------------------------------

  Final internal derivatives :

--------------------------------------------------------------------------------
   No.  Atomic          a             b             c           Radius
        Label          (eV)          (eV)          (eV)        (eV/Angs)
--------------------------------------------------------------------------------
      1 Ca    c       0.000000      0.000000      0.000000      0.000000
      2 Ca    c       0.001212      0.006123      0.000000      0.000000
      3 Sr    c      -0.000633      0.001917     -0.000000      0.000000
      4 Sr    c      -0.000633     -0.001917     -0.000000      0.000000
      5 Ti    c      -0.003174      0.004651     -0.008903      0.000000
      6 Ti    c      -0.003174     -0.004651      0.008903      0.000000
      7 Ti    c      -0.003174     -0.004651     -0.008903      0.000000
      8 Ti    c      -0.003174      0.004651      0.008903      0.000000
      9 O1    c      -0.000854      0.003659      0.000000      0.000000
     10 O1    c      -0.000854     -0.003659      0.000000      0.000000
     11 O2    c      -0.001446      0.004969      0.006031      0.000000
     12 O2    c      -0.001446     -0.004969     -0.006031      0.000000
[...]
   19 O2    x      -2.0653      0.4387      0.0000
            y       0.4245     -2.0868     -0.0000
            z       0.0000      0.0000     -1.6416
-------------------------------------------------------------------------------
   20 O2    x      -2.0653     -0.4387     -0.0000
            y      -0.4245     -2.0868     -0.0000
            z      -0.0000      0.0000     -1.6416
-------------------------------------------------------------------------------




  Elastic Constant Matrix: (Units=GPa)

-------------------------------------------------------------------------------
  Indices      1         2         3         4         5         6    
-------------------------------------------------------------------------------
       1    478.0635  117.0871  156.7347    0.0000   -0.0000   -0.0000
       2    117.0871  485.0472  152.4820    0.0000   -0.0000   -0.0000
       3    156.7347  152.4820  448.1604    0.0000   -0.0000   -0.0000
       4      0.0000    0.0000    0.0000  180.5488   -0.0000   -0.0000
       5     -0.0000   -0.0000   -0.0000   -0.0000  182.6671    0.0000
       6     -0.0000   -0.0000   -0.0000   -0.0000    0.0000  144.3085
-------------------------------------------------------------------------------


  Elastic Compliance Matrix: (Units=1/GPa)

-------------------------------------------------------------------------------
  Indices      1         2         3         4         5         6    
-------------------------------------------------------------------------------
       1    0.002416 -0.000356 -0.000724 -0.000000  0.000000  0.000000
       2   -0.000356  0.002361 -0.000679 -0.000000  0.000000  0.000000
       3   -0.000724 -0.000679  0.002716 -0.000000  0.000000  0.000000
       4   -0.000000 -0.000000 -0.000000  0.005539  0.000000  0.000000
       5    0.000000  0.000000  0.000000  0.000000  0.005474 -0.000000
       6    0.000000  0.000000  0.000000  0.000000 -0.000000  0.006930
-------------------------------------------------------------------------------

  Mechanical properties :

-------------------------------------------------------------------------------
  Convention :                    Reuss         Voigt         Hill
-------------------------------------------------------------------------------
  Bulk  Modulus (GPa)     =     251.53654     251.54206     251.53930
  Shear Modulus (GPa)     =     165.13759     167.16940     166.15350
-------------------------------------------------------------------------------
  Velocity S-wave (km/s)  =       6.39458       6.43380       6.41422
  Velocity P-wave (km/s)  =      10.80765      10.83870      10.82318
-------------------------------------------------------------------------------
  Compressibility (1/GPa) =    0.00397557
-------------------------------------------------------------------------------
  Stress axis :                     x             y             z
-------------------------------------------------------------------------------
  Youngs Moduli (GPa)     =     413.86379     423.56182     368.25030
-------------------------------------------------------------------------------
  Poissons Ratio (x)      =                     0.15064       0.26662
  Poissons Ratio (y)      =       0.14719                     0.25000
  Poissons Ratio (z)      =       0.29965       0.28756
-------------------------------------------------------------------------------


  Piezoelectric Strain Matrix: (Units=C/m**2)

-------------------------------------------------------------------------------
  Indices      1         2         3         4         5         6    
-------------------------------------------------------------------------------
       x     0.00000   0.00000  -0.00000   0.00000  -0.00000   0.00000
       y     0.00000   0.00000  -0.00000  -0.00000   0.00000   0.00000
       z    -0.00000  -0.00000   0.00000  -0.00000  -0.00000  -0.00000
-------------------------------------------------------------------------------


  Piezoelectric Stress Matrix: (Units=10**-11 C/N)

-------------------------------------------------------------------------------
  Indices      1         2         3         4         5         6    
-------------------------------------------------------------------------------
       x     0.00000   0.00000  -0.00000   0.00000  -0.00000   0.00000
       y     0.00000   0.00000  -0.00000  -0.00000   0.00000   0.00000
       z    -0.00000  -0.00000   0.00000  -0.00000  -0.00000  -0.00000
-------------------------------------------------------------------------------


  Static dielectric constant tensor : 

-------------------------------------------------------------------------------
              x         y         z
-------------------------------------------------------------------------------
       x    16.81756  -0.00000   0.00000
       y    -0.00000  19.33869  -0.00000
       z     0.00000  -0.00000  17.68007
--------------------------------------------------------------------------------

  High frequency dielectric constant tensor : 

-------------------------------------------------------------------------------
              x         y         z
-------------------------------------------------------------------------------
       x     2.54567  -0.00000   0.00000
       y    -0.00000   2.54691  -0.00000
       z     0.00000  -0.00000   2.54176
-------------------------------------------------------------------------------

  Static refractive indices : 

-------------------------------------------------------------------------------
    1 =    4.10092      2 =    4.20477      3 =    4.39758
-------------------------------------------------------------------------------

  High frequency refractive indices : 

-------------------------------------------------------------------------------
    1 =    1.59429      2 =    1.59552      3 =    1.59591
-------------------------------------------------------------------------------


  Phonon Calculation : 

  Eigenvectors will be output with mass-weighting and unphased 

  Number of k points for this configuration =        8

--------------------------------------------------------------------------------
 (Core) Atomic information:
--------------------------------------------------------------------------------
Atom  1(Ca):
  Mass     =  0.6656E-25 kg
  bbar     =  0.4760E-04 Ang
  sigma_inc     =  0.4276E-09 Ang^2
  Sigma_coh     =  0.2847E-07 Ang^2
  Cartesian  position =   5.34085050    0.17958270    1.91000000  Ang
  Fractional position =   0.99300000    0.03300000    0.25000000
Atom  2(Ca):
  Mass     =  0.6656E-25 kg
  bbar     =  0.4760E-04 Ang
  sigma_inc     =  0.4276E-09 Ang^2
  Sigma_coh     =  0.2847E-07 Ang^2
  Cartesian  position =   2.65160050    2.90063553    5.73000000  Ang
  Fractional position =   0.49300000    0.53301890    0.75000000
Atom  3(Ca):
  Mass     =  0.6656E-25 kg
  bbar     =  0.4760E-04 Ang
  sigma_inc     =  0.4276E-09 Ang^2
  Sigma_coh     =  0.2847E-07 Ang^2
  Cartesian  position =   2.65147835    2.90053270    1.91000000  Ang
  Fractional position =   0.49297729    0.53300000    0.25000000
Atom  4(Ca):
  Mass     =  0.6656E-25 kg
  bbar     =  0.4760E-04 Ang
  sigma_inc     =  0.4276E-09 Ang^2
  Sigma_coh     =  0.2847E-07 Ang^2
  Cartesian  position =   5.34072835    0.17968553    5.73000000  Ang
  Fractional position =   0.99297729    0.03301890    0.75000000
Atom  5(Ti):
  Mass     =  0.7951E-25 kg
  bbar     = -0.3438E-04 Ang
  sigma_inc     =  0.2865E-07 Ang^2
  Sigma_coh     =  0.1485E-07 Ang^2
  Cartesian  position =   5.34078943    2.90058412    7.64000000  Ang
  Fractional position =   0.99298864    0.53300945    1.00000000
Atom  6(Ti):
  Mass     =  0.7951E-25 kg
  bbar     = -0.3438E-04 Ang
  sigma_inc     =  0.2865E-07 Ang^2
  Sigma_coh     =  0.1485E-07 Ang^2
  Cartesian  position =   2.65153943    0.17963412    0.00000000  Ang
  Fractional position =   0.49298864    0.03300945    0.00000000
Atom  7(Ti):
  Mass     =  0.7951E-25 kg
  bbar     = -0.3438E-04 Ang
  sigma_inc     =  0.2865E-07 Ang^2
  Sigma_coh     =  0.1485E-07 Ang^2
  Cartesian  position =   2.65153943    0.17963412    3.82000000  Ang
  Fractional position =   0.49298864    0.03300945    0.50000000
Atom  8(Ti):
  Mass     =  0.7951E-25 kg
  bbar     = -0.3438E-04 Ang
  sigma_inc     =  0.2865E-07 Ang^2
  Sigma_coh     =  0.1485E-07 Ang^2
  Cartesian  position =   5.34078943    2.90058412    3.82000000  Ang
  Fractional position =   0.99298864    0.53300945    0.50000000
Atom  9(O1):
  Mass     =  0.2657E-25 kg
  bbar     =  0.5803E-04 Ang
  sigma_inc     =  0.2987E-11 Ang^2
  Sigma_coh     =  0.4232E-07 Ang^2
  Cartesian  position =   5.34057170    2.90054581    1.91000000  Ang
  Fractional position =   0.99294816    0.53300241    0.25000000
Atom 10(O1):
  Mass     =  0.2657E-25 kg
  bbar     =  0.5803E-04 Ang
  sigma_inc     =  0.2987E-11 Ang^2
  Sigma_coh     =  0.4232E-07 Ang^2
  Cartesian  position =   2.65132170    0.17967242    5.73000000  Ang
  Fractional position =   0.49294816    0.03301649    0.75000000
Atom 11(O1):
  Mass     =  0.2657E-25 kg
  bbar     =  0.5803E-04 Ang
  sigma_inc     =  0.2987E-11 Ang^2
  Sigma_coh     =  0.4232E-07 Ang^2
  Cartesian  position =   2.65175716    0.17959581    1.91000000  Ang
  Fractional position =   0.49302913    0.03300241    0.25000000
Atom 12(O1):
  Mass     =  0.2657E-25 kg
  bbar     =  0.5803E-04 Ang
  sigma_inc     =  0.2987E-11 Ang^2
  Sigma_coh     =  0.4232E-07 Ang^2
  Cartesian  position =   5.34100716    2.90062242    5.73000000  Ang
  Fractional position =   0.99302913    0.53301649    0.75000000
Atom 13(O2):
  Mass     =  0.2657E-25 kg
  bbar     =  0.5803E-04 Ang
  sigma_inc     =  0.2987E-11 Ang^2
  Sigma_coh     =  0.4232E-07 Ang^2
  Cartesian  position =   3.99629120    1.53998100    7.63980552  Ang
  Fractional position =   0.74301222    0.28298590    0.99997454
Atom 14(O2):
  Mass     =  0.2657E-25 kg
  bbar     =  0.5803E-04 Ang
  sigma_inc     =  0.2987E-11 Ang^2
  Sigma_coh     =  0.4232E-07 Ang^2
  Cartesian  position =   1.30704120    1.54023724    0.00019448  Ang
  Fractional position =   0.24301222    0.28303299    0.00002546
Atom 15(O2):
  Mass     =  0.2657E-25 kg
  bbar     =  0.5803E-04 Ang
  sigma_inc     =  0.2987E-11 Ang^2
  Sigma_coh     =  0.4232E-07 Ang^2
  Cartesian  position =   3.99603765    4.26093100    3.82019448  Ang
  Fractional position =   0.74296507    0.78298590    0.50002546
Atom 16(O2):
  Mass     =  0.2657E-25 kg
  bbar     =  0.5803E-04 Ang
  sigma_inc     =  0.2987E-11 Ang^2
  Sigma_coh     =  0.4232E-07 Ang^2
  Cartesian  position =   1.30678765    4.26118724    3.81980552  Ang
  Fractional position =   0.24296507    0.78303299    0.49997454
Atom 17(O2):
  Mass     =  0.2657E-25 kg
  bbar     =  0.5803E-04 Ang
  sigma_inc     =  0.2987E-11 Ang^2
  Sigma_coh     =  0.4232E-07 Ang^2
  Cartesian  position =   1.30678765    4.26118724    0.00019448  Ang
  Fractional position =   0.24296507    0.78303299    0.00002546
Atom 18(O2):
  Mass     =  0.2657E-25 kg
  bbar     =  0.5803E-04 Ang
  sigma_inc     =  0.2987E-11 Ang^2
  Sigma_coh     =  0.4232E-07 Ang^2
  Cartesian  position =   3.99603765    4.26093100    7.63980552  Ang
  Fractional position =   0.74296507    0.78298590    0.99997454
Atom 19(O2):
  Mass     =  0.2657E-25 kg
  bbar     =  0.5803E-04 Ang
  sigma_inc     =  0.2987E-11 Ang^2
  Sigma_coh     =  0.4232E-07 Ang^2
  Cartesian  position =   1.30704120    1.54023724    3.81980552  Ang
  Fractional position =   0.24301222    0.28303299    0.49997454
Atom 20(O2):
  Mass     =  0.2657E-25 kg
  bbar     =  0.5803E-04 Ang
  sigma_inc     =  0.2987E-11 Ang^2
  Sigma_coh     =  0.4232E-07 Ang^2
  Cartesian  position =   3.99629120    1.53998100    3.82019448  Ang
  Fractional position =   0.74301222    0.28298590    0.50002546
--------------------------------------------------------------------------------
  Start of PDF calculation
--------------------------------------------------------------------------------

  PDF information:

  Maximum radius        =  6.000 Ang
  Number density        =  0.089 Ang(^-3)
  (Sum{c_i bbar_i} )^2  =  0.1403E-08

  Using primitive cell parameters   5.3785   5.4419   7.6400
  Testing primitive vectors with x,y,z=-(n+1) to n, n=    2
[width output suppressed by keyword nowidth]
  PDF statistics:

  Maximum width^2  was  0.2466E-01 Ang^2
  Number of pairs      1480
  Angular frequency range used:
   0.212015E+14 to  0.160263E+15 rad/s 
   0.337432E+01 to  0.255066E+02 THz   

  PDF output being written to example46_CaTio3.pdfs
--------------------------------------------------------------------------------
  End of PDF calculation
--------------------------------------------------------------------------------

--------------------------------------------------------------------------------
  Phonon properties (per mole of unit cells): Temperature =      0.000 K
--------------------------------------------------------------------------------
  Zero point energy             =        1.452452 eV
--------------------------------------------------------------------------------

  Phonon density of states : 

--------------------------------------------------------------------------------
 Frequency (cm-1) Density of States                                             
--------------------------------------------------------------------------------
    0.00000 |                                                              0.000
   13.29387 |                                                              0.000
   26.58775 |                                                              0.000
   39.88162 |                                                              0.000
   53.17550 |                                                              0.000
   66.46937 |                                                              0.000
   79.76324 |                                                              0.000
   93.05712 |                                                              0.000
  106.35099 |************                                                  0.017
  119.64486 |************                                                  0.017
  132.93874 |************************                                      0.033
  146.23261 |************************************************************  0.083
  159.52649 |************************                                      0.033
  172.82036 |************************************************************  0.083
  186.11423 |************                                                  0.017
  199.40811 |************************************                          0.050
  212.70198 |                                                              0.000
  225.99585 |************                                                  0.017
  239.28973 |                                                              0.000
  252.58360 |************************************                          0.050
  265.87748 |                                                              0.000
  279.17135 |************************                                      0.033
  292.46522 |************************                                      0.033
  305.75910 |************                                                  0.017
  319.05297 |************                                                  0.017
  332.34684 |                                                              0.000
  345.64072 |                                                              0.000
  358.93459 |************                                                  0.017
  372.22847 |************                                                  0.017
  385.52234 |************                                                  0.017
  398.81621 |************************************************              0.067
  412.11009 |************                                                  0.017
  425.40396 |                                                              0.000
  438.69783 |************                                                  0.017
  451.99171 |************************                                      0.033
  465.28558 |                                                              0.000
  478.57946 |                                                              0.000
  491.87333 |                                                              0.000
  505.16720 |************                                                  0.017
  518.46108 |************                                                  0.017
  531.75495 |                                                              0.000
  545.04882 |                                                              0.000
  558.34270 |************************                                      0.033
  571.63657 |                                                              0.000
  584.93045 |                                                              0.000
  598.22432 |************************************                          0.050
  611.51819 |************                                                  0.017
  624.81207 |                                                              0.000
  638.10594 |************                                                  0.017
  651.39981 |************************                                      0.033
  664.69369 |                                                              0.000
  677.98756 |                                                              0.000
  691.28144 |                                                              0.000
  704.57531 |************************                                      0.033
  717.86918 |                                                              0.000
  731.16306 |************************                                      0.033
  744.45693 |                                                              0.000
  757.75080 |                                                              0.000
  771.04468 |                                                              0.000
  784.33855 |                                                              0.000
  797.63243 |                                                              0.000
  810.92630 |************                                                  0.017
  824.22017 |************************                                      0.033
  837.51405 |************                                                  0.017
--------------------------------------------------------------------------------



  Time to end of optimisation =       2.0448 seconds


  Peak dynamic memory used =       2.51 MB 


  Timing analysis for GULP :

--------------------------------------------------------------------------------
  Task / Subroutine                                          Time (Seconds)
--------------------------------------------------------------------------------
  Calculation of reciprocal space energy and derivatives          0.4703
  Calculation of real space energy and derivatives                1.3604
  Calculation of phonons                                          0.3379
  Calculation and manipulation of Hessian matrix                  0.0588
  Calculation of matrix diagonalisation                           0.0215
  Calculation of matrix inversion                                 0.0049
  Symmetry generation of equivalent positions                     0.0003
  Global summation overhead                                       0.0004
--------------------------------------------------------------------------------
  Total CPU time                                                  2.0449
--------------------------------------------------------------------------------


  Job Finished at 10:07.42 23rd August     2023                               

