********************************************************************************
*                       GENERAL UTILITY LATTICE PROGRAM                        *
*                                 Julian Gale                                  *
*                       Curtin Institute for Computation                       *
*                    School of Molecular and Life Sciences                     *
*                    Curtin University, Western Australia                      *
********************************************************************************
* Version = 6.2.0 * Last modified =  30th August 2023                          *
********************************************************************************
*  optimise     - perform optimisation run                                     *
*  conp         - constant pressure calculation                                *
*  property     - calculate properties for final geometry                      *
*  phonon       - calculate phonons for final geometry                         *
********************************************************************************

  Job Started  at 11:48.54 30th August     2023                               

  Number of CPUs =     1


  Total number of configurations input =      1

********************************************************************************
*  Input for Configuration =   1                                               *
********************************************************************************

  Formula = Si3O6                                                       

  Number of irreducible atoms/shells =       2


  Total number atoms/shells =       9

  Dimensionality = 3               :  Bulk   


  Symmetry :

  Crystal family                   :  Hexagonal   
  Crystal class  (Groth - 1921)    :  Trigonal Trapezohedral               

  Space group (noncentrosymmetric) :  P 31 2 1        

  Patterson group                  :  P -3 m 1 

  Cartesian lattice vectors (Angstroms) :

        4.914850    0.000000    0.000000
       -2.457425    4.256385    0.000000
        0.000000    0.000000    5.406290

  Cell parameters (Angstroms/Degrees):

  a =       4.9148    alpha =  90.0000
  b =       4.9148    beta  =  90.0000
  c =       5.4063    gamma = 120.0000

  Initial cell volume =         113.096849 Angs**3

  Temperature of configuration =   0.00     K 

  Pressure of configuration =         0.000 GPa 

  Fractional coordinates of asymmetric unit :

--------------------------------------------------------------------------------
   No.  Atomic       x           y          z         Charge      Occupancy
        Label      (Frac)      (Frac)     (Frac)        (e)         (Frac)  
--------------------------------------------------------------------------------
      1 Si    c    0.468200 *  0.000000    0.333333     0.00000    1.000000    
      2 O     c    0.413100 *  0.266100 *  0.213100 *   0.00000    1.000000    
--------------------------------------------------------------------------------


  Constraints : 

--------------------------------------------------------------------------------
  Constraint no.      Unconstrained     Constrained    Coefficient    Offset
                         Variable         Variable
--------------------------------------------------------------------------------
           1              Strain 1        Strain 2       1.00000      0.0000
--------------------------------------------------------------------------------

  Brillouin zone sampling points :

--------------------------------------------------------------------------------
  Point number          x          y          z            Weight
--------------------------------------------------------------------------------
        1           0.000000   0.000000   0.000000     0.50000000
        2           0.500000   0.500000   0.500000     0.50000000
--------------------------------------------------------------------------------


********************************************************************************
*  General input information                                                   *
********************************************************************************

  Species output for all configurations : 

--------------------------------------------------------------------------------
  Species    Type    Atomic    Atomic    Charge       Radii (Angs)     Library
                     Number     Mass       (e)     Cova   Ionic  VDW   Symbol
--------------------------------------------------------------------------------
    Si       Core       14      28.09   0.000000   1.200  0.000  2.100          
    O        Core        8      16.00   0.000000   0.730  0.000  1.360          
--------------------------------------------------------------------------------


  Lattice summation method               =    Ewald          (3-D)
                                         =    Parry          (2-D)
                                         =    Saunders et al (1-D)
  Accuracy factor for lattice sums       =   12.000


  Analytic derivatives to be used

  Time limit = Infinity

  Maximum range for interatomic potentials =    100000.000000 Angstroms

  ReaxFF forcefield to be used

  ReaxFF Coulomb cutoff =  10.0000 Ang
  ReaxFF VDW     cutoff =  10.0000 Ang
  ReaxFF H-bond  cutoff =   7.5000 Ang

  ReaxFF pairwise bond order       threshold = 0.00100000000000
  ReaxFF angle/torsion bond order  threshold = 0.00100000000000
  ReaxFF bond order double product threshold = 0.00000100000000
  ReaxFF bond order triple product threshold = 0.00000000100000
  ReaxFF hydrogen-bond bond order  threshold = 0.01000000000000


********************************************************************************
*  Output for configuration   1                                                *
********************************************************************************


  Components of energy : 

--------------------------------------------------------------------------------
  Interatomic potentials     =           0.00000000 eV    
  ReaxFF force field         =         -58.27397218 eV    
  Monopole - monopole (real) =           0.00000000 eV    
  Monopole - monopole (recip)=           0.00000000 eV    
  Monopole - monopole (total)=           0.00000000 eV    
--------------------------------------------------------------------------------
  Total lattice energy       =         -58.27397218 eV    
--------------------------------------------------------------------------------
  Total lattice energy       =           -5622.5475 kJ/(mole unit cells)
--------------------------------------------------------------------------------


  Number of variables =        6

  Maximum number of calculations  =          1000
  Maximum Hessian update interval =            10
  Maximum step size               =   1.000000000
  Maximum parameter tolerance     =   0.000010000
  Maximum function  tolerance     =   0.000010000
  Maximum gradient  tolerance     =   0.001000000
  Maximum gradient  component     =   0.010000000

  Symmetry constrained optimisation

  Cell parameters to be optimised using strains

  Newton-Raphson optimiser to be used

  BFGS hessian update to be used

  Lower half triangular hessian to be used

  Start of bulk optimisation :

  Cycle:      0 Energy:       -58.273972  Gnorm:      5.968010  CPU:    0.029
  ** Hessian calculated **
  Cycle:      1 Energy:       -58.806856  Gnorm:      1.797125  CPU:    0.032
  Cycle:      2 Energy:       -58.858614  Gnorm:      1.031246  CPU:    0.034
  Cycle:      3 Energy:       -58.879413  Gnorm:      0.799936  CPU:    0.037
  Cycle:      4 Energy:       -58.884186  Gnorm:      0.499081  CPU:    0.039
  Cycle:      5 Energy:       -58.886307  Gnorm:      0.246604  CPU:    0.041
  Cycle:      6 Energy:       -58.887215  Gnorm:      0.123306  CPU:    0.044
  Cycle:      7 Energy:       -58.887278  Gnorm:      0.013641  CPU:    0.047
  Cycle:      8 Energy:       -58.887282  Gnorm:      0.006784  CPU:    0.049


  **** Optimisation achieved ****


  Final energy =     -58.88728252 eV      
  Final Gnorm  =       0.00068179

  Components of energy : 

--------------------------------------------------------------------------------
  Interatomic potentials     =           0.00000000 eV    
  ReaxFF force field         =         -58.88728252 eV    
  Monopole - monopole (real) =           0.00000000 eV    
  Monopole - monopole (recip)=           0.00000000 eV    
  Monopole - monopole (total)=           0.00000000 eV    
--------------------------------------------------------------------------------
  Total lattice energy       =         -58.88728252 eV    
--------------------------------------------------------------------------------
  Total lattice energy       =           -5681.7226 kJ/(mole unit cells)
--------------------------------------------------------------------------------

  Final asymmetric unit coordinates :

--------------------------------------------------------------------------------
   No.  Atomic        x           y           z         Radius
        Label       (Frac)      (Frac)      (Frac)       (Angs) 
--------------------------------------------------------------------------------
     1  Si    c     0.500000    0.000000    0.333333    0.000000
     2  O     c     0.431575    0.215790    0.166669    0.000000
--------------------------------------------------------------------------------

  Final Cartesian lattice vectors (Angstroms) :

        4.957778    0.000000    0.000000
       -2.478889    4.293562    0.000000
        0.000000    0.000000    5.524636


  Final cell parameters and derivatives :

--------------------------------------------------------------------------------
       a            4.957778 Angstrom     dE/de1(xx)    -0.001705 eV/strain
       b            4.957778 Angstrom     dE/de2(yy)     0.000000 eV/strain
       c            5.524636 Angstrom     dE/de3(zz)    -0.001223 eV/strain
       alpha       90.000000 Degrees      dE/de4(yz)     0.000000 eV/strain
       beta        90.000000 Degrees      dE/de5(xz)     0.000000 eV/strain
       gamma      120.000000 Degrees      dE/de6(xy)     0.000000 eV/strain
--------------------------------------------------------------------------------

  Primitive cell volume =           117.600323 Angs**3

  Density of cell =      2.545487 g/cm**3

  Non-primitive cell volume =           117.600323 Angs**3


  Final internal derivatives :

--------------------------------------------------------------------------------
   No.  Atomic          a             b             c           Radius
        Label          (eV)          (eV)          (eV)        (eV/Angs)
--------------------------------------------------------------------------------
      1 Si    c       0.002669      0.000000      0.000000      0.000000
      2 O     c       0.000876      0.002012     -0.000628      0.000000
--------------------------------------------------------------------------------
  Maximum abs         0.002669      0.002012      0.000628      0.000000
--------------------------------------------------------------------------------


  Born effective charge tensors : 

-------------------------------------------------------------------------------
  Atom             x           y             z
-------------------------------------------------------------------------------
    1 Si    x       0.4037     -1.8496     -0.5287
            y       0.0000      3.3794      0.0001
            z      -0.0000     -0.0000     -0.1975
-------------------------------------------------------------------------------
    2 O     x      -0.1640     -0.3393      0.4514
            y      -0.9347     -0.1160     -0.7819
            z       0.1886      1.8814     -2.0433
-------------------------------------------------------------------------------




  Elastic Constant Matrix: (Units=GPa)

-------------------------------------------------------------------------------
  Indices      1         2         3         4         5         6    
-------------------------------------------------------------------------------
       1    627.2231  550.4612  616.1530   -0.0008    0.0000   -0.0000
       2    550.4612  627.2231  616.1530    0.0008   -0.0000   -0.0000
       3    616.1530  616.1530  718.4814    0.0000   -0.0000   -0.0000
       4     -0.0008    0.0008    0.0000   36.2857    0.0000   -0.0000
       5      0.0000   -0.0000   -0.0000    0.0000   36.2857   -0.0008
       6     -0.0000   -0.0000   -0.0000   -0.0000   -0.0008   38.3810
-------------------------------------------------------------------------------


  Elastic Compliance Matrix: (Units=1/GPa)

-------------------------------------------------------------------------------
  Indices      1         2         3         4         5         6    
-------------------------------------------------------------------------------
       1    0.010650 -0.002378 -0.007094  0.000000 -0.000000  0.000000
       2   -0.002378  0.010650 -0.007094 -0.000000  0.000000  0.000000
       3   -0.007094 -0.007094  0.013559 -0.000000  0.000000 -0.000000
       4    0.000000 -0.000000 -0.000000  0.027559 -0.000000  0.000000
       5   -0.000000  0.000000  0.000000 -0.000000  0.027559  0.000001
       6    0.000000  0.000000 -0.000000  0.000000  0.000001  0.026055
-------------------------------------------------------------------------------

  Mechanical properties :

-------------------------------------------------------------------------------
  Convention :                    Reuss         Voigt         Hill
-------------------------------------------------------------------------------
  Bulk  Modulus (GPa)     =     578.89937     615.38465     597.14201
  Shear Modulus (GPa)     =      33.39157      34.86783      34.12970
-------------------------------------------------------------------------------
  Velocity S-wave (km/s)  =       3.62187       3.70107       3.66168
  Velocity P-wave (km/s)  =      15.64968      16.12510      15.88917
-------------------------------------------------------------------------------
  Compressibility (1/GPa) =    0.00172742
-------------------------------------------------------------------------------
  Stress axis :                     x             y             z
-------------------------------------------------------------------------------
  Youngs Moduli (GPa)     =      93.89909      93.89909      73.75083
-------------------------------------------------------------------------------
  Poissons Ratio (x)      =                     0.22325       0.52319
  Poissons Ratio (y)      =       0.22325                     0.52319
  Poissons Ratio (z)      =       0.66612       0.66612
-------------------------------------------------------------------------------



  Phonon Calculation : 

  Using force constant supercell algorithm with: 

    Maximum force field cutoff =   0.0000 Ang
    Maximum interaction range  =  18.0000 Ang
    Supercell dimensions       =    4   4   4

  Number of k points for this configuration =        2

--------------------------------------------------------------------------------
  K point      1 =   0.000000  0.000000  0.000000  Weight =    0.500
--------------------------------------------------------------------------------

  Frequencies (cm-1) [NB: Negative implies an imaginary mode]:

   -0.00   -0.00    0.00   64.94  147.55  147.55  279.24  281.38  281.38
  390.13  403.91  418.79  418.79  422.42  422.42  453.64  634.73  634.73
  675.30  675.30  809.11  965.63  965.63  967.88  979.38  983.94  983.94


--------------------------------------------------------------------------------
  K point      2 =   0.500000  0.500000  0.500000  Weight =    0.500
--------------------------------------------------------------------------------

  Frequencies (cm-1) [NB: Negative implies an imaginary mode]:

   65.07   94.63  116.61  198.10  212.81  219.54  265.87  294.15  309.89
  339.72  350.77  396.66  427.00  441.39  460.74  497.92  520.60  680.25
  682.75  710.06  794.61  958.43  964.32  966.88  978.98  981.05  981.28


--------------------------------------------------------------------------------
  Phonon properties (per mole of unit cells): Temperature =      0.000 K
--------------------------------------------------------------------------------
  Zero point energy             =        0.846749 eV
--------------------------------------------------------------------------------

  Time to end of optimisation =       4.8184 seconds



  Final charges from ReaxFF :

--------------------------------------------------------------------------------
    Atom no.            Atomic No.             Charge
--------------------------------------------------------------------------------
         1                  14                 1.6299810
         2                  14                 1.6299810
         3                  14                 1.6299810
         4                   8                -0.8149905
         5                   8                -0.8149905
         6                   8                -0.8149905
         7                   8                -0.8149905
         8                   8                -0.8149905
         9                   8                -0.8149905
--------------------------------------------------------------------------------


  Peak dynamic memory used =      74.43 MB 


  Timing analysis for GULP :

--------------------------------------------------------------------------------
  Task / Subroutine                                          Time (Seconds)
--------------------------------------------------------------------------------
  Calculation of reaxFF energy and derivatives                    2.9285
  Calculation of phonons                                          4.7236
  Electronegativity equalisation                                  1.4901
  Calculation of variable charge 2nd derivatives                  1.8272
  Symmetry generation of equivalent positions                     0.0003
--------------------------------------------------------------------------------
  Total CPU time                                                  4.8186
--------------------------------------------------------------------------------


  Job Finished at 11:48.59 30th August     2023                               

