********************************************************************************
*                       GENERAL UTILITY LATTICE PROGRAM                        *
*                                 Julian Gale                                  *
*                       Curtin Institute for Computation                       *
*                    School of Molecular and Life Sciences                     *
*                    Curtin University, Western Australia                      *
********************************************************************************
* Version = 6.2.0 * Last modified =  22nd August 2023                          *
********************************************************************************
*  optimise     - perform optimisation run                                     *
*  conp         - constant pressure calculation                                *
*  property     - calculate properties for final geometry                      *
*  defect       - perform defect calculation after bulk run                    *
*  regi_before  - output region 1 at start of defect calculation               *
********************************************************************************
* Example of defect impurity calc : Li substituted into MgO                    *
********************************************************************************


  Job Started  at 09:58.43 23rd August     2023                               

  Number of CPUs =     1


  Total number of configurations input =      1

********************************************************************************
*  Input for Configuration =   1                                               *
********************************************************************************

  Formula = OMg                                                         

  Number of irreducible atoms/shells =       3


  Total number atoms/shells =       3

  Dimensionality = 3               :  Bulk   


  Symmetry :

  Crystal family                   :  Cubic       
  Crystal class  (Groth - 1921)    :  Cubic Hexakisoctahedral              

  Space group (centrosymmetric)    :  F M 3 M         

  Patterson group                  :  F m -3 m 

  Cartesian lattice vectors (Angstroms) :

        0.000000    2.106000    2.106000
        2.106000    0.000000    2.106000
        2.106000    2.106000    0.000000

  Primitive cell parameters :            Full cell parameters :

  a =   2.9783    alpha =  60.0000       a =   4.2120    alpha =  90.0000
  b =   2.9783    beta  =  60.0000       b =   4.2120    beta  =  90.0000
  c =   2.9783    gamma =  60.0000       c =   4.2120    gamma =  90.0000

  Initial volumes (Angstroms**3):

  Primitive cell =          18.681214    Full cell =          74.724856

  Temperature of configuration =   0.00     K 

  Pressure of configuration =         0.000 GPa 

  Fractional coordinates of asymmetric unit :

--------------------------------------------------------------------------------
   No.  Atomic       x           y          z         Charge      Occupancy
        Label      (Frac)      (Frac)     (Frac)        (e)         (Frac)  
--------------------------------------------------------------------------------
      1 O     c    0.500000    0.500000    0.500000     0.86902    1.000000    
      2 Mg    c    0.000000    0.000000    0.000000     2.00000    1.000000    
      3 O     s    0.500000    0.500000    0.500000    -2.86902    1.000000    
--------------------------------------------------------------------------------


  Constraints : 

--------------------------------------------------------------------------------
  Constraint no.      Unconstrained     Constrained    Coefficient    Offset
                         Variable         Variable
--------------------------------------------------------------------------------
           1              Strain 1        Strain 2       1.00000      0.0000
           2              Strain 1        Strain 3       1.00000      0.0000
--------------------------------------------------------------------------------


********************************************************************************
*  General input information                                                   *
********************************************************************************

  Species output for all configurations : 

--------------------------------------------------------------------------------
  Species    Type    Atomic    Atomic    Charge       Radii (Angs)     Library
                     Number     Mass       (e)     Cova   Ionic  VDW   Symbol
--------------------------------------------------------------------------------
    Li       Core        3       6.94   1.000000   0.680  0.000  0.000          
    O        Core        8      16.00   0.869020   0.730  0.000  1.360          
    Mg       Core       12      24.31   2.000000   1.100  0.000  1.640          
    O        Shell       8       0.00  -2.869020   0.730  0.000  1.360          
--------------------------------------------------------------------------------


  Lattice summation method               =    Ewald          (3-D)
                                         =    Parry          (2-D)
                                         =    Saunders et al (1-D)
  Accuracy factor for lattice sums       =   12.000


  Analytic derivatives to be used

  Time limit = Infinity

  Maximum range for interatomic potentials =    100000.000000 Angstroms

  General interatomic potentials :

--------------------------------------------------------------------------------
Atom  Types   Potential      Parameter       Value         Units   Cutoffs(Ang)
  1     2                                                            Min /  Max 
--------------------------------------------------------------------------------
Mg   c O    s Buckingham    Buckingham A     1280.0000    eV        0.000  8.000
                            Buckingham rho  0.30000000    Ang       
                            Buckingham C     0.0000000    eV*Ang^6  
--------------------------------------------------------------------------------
Li   c O    s Buckingham    Buckingham A     816.30000    eV        0.000  8.000
                            Buckingham rho  0.26086000    Ang       
                            Buckingham C     0.0000000    eV*Ang^6  
--------------------------------------------------------------------------------
O    s O    s Buckingham    Buckingham A     1280.0000    eV        0.000 10.000
                            Buckingham rho  0.30000000    Ang       
                            Buckingham C     27.880000    eV*Ang^6  
--------------------------------------------------------------------------------
O    c O    s Spring (c-s)  Spring k 2       74.920000    eV*Ang^-2 0.000  0.800
                            Spring k 4       0.0000000    eV*Ang^-4 
--------------------------------------------------------------------------------

********************************************************************************
*  Output for configuration   1                                                *
********************************************************************************


  Components of energy : 

--------------------------------------------------------------------------------
  Interatomic potentials     =           7.01578450 eV    
  Monopole - monopole (real) =          -4.34238722 eV    
  Monopole - monopole (recip)=         -43.45344934 eV    
  Monopole - monopole (total)=         -47.79583656 eV    
--------------------------------------------------------------------------------
  Total lattice energy : 
    Primitive unit cell      =         -40.78005207 eV    
    Non-primitive unit cell  =        -163.12020827 eV    
--------------------------------------------------------------------------------
  Total lattice energy (in kJmol-1): 
    Primitive unit cell      =           -3934.6516 kJ/(mole unit cells)
    Non-primitive unit cell  =          -15738.6066 kJ/(mole unit cells)
--------------------------------------------------------------------------------


  Number of variables =        1

  Maximum number of calculations  =          1000
  Maximum Hessian update interval =            10
  Maximum step size               =   1.000000000
  Maximum parameter tolerance     =   0.000010000
  Maximum function  tolerance     =   0.000010000
  Maximum gradient  tolerance     =   0.001000000
  Maximum gradient  component     =   0.010000000

  Symmetry constrained optimisation

  Symmetry used for second derivatives

  Cell parameters to be optimised using strains

  Newton-Raphson optimiser to be used

  BFGS hessian update to be used

  Lower half triangular hessian to be used

  Start of bulk optimisation :

  Cycle:      0 Energy:       -40.780052  Gnorm:      3.180029  CPU:    0.004
  ** Hessian calculated **
  Cycle:      1 Energy:       -40.798930  Gnorm:      0.023749  CPU:    0.005


  **** Optimisation achieved ****


  Final energy =     -40.79893139 eV      
  Final Gnorm  =       0.00000308

  Components of energy : 

--------------------------------------------------------------------------------
  Interatomic potentials     =           6.42580798 eV    
  Monopole - monopole (real) =          -4.29050142 eV    
  Monopole - monopole (recip)=         -42.93423795 eV    
  Monopole - monopole (total)=         -47.22473937 eV    
--------------------------------------------------------------------------------
  Total lattice energy : 
    Primitive unit cell      =         -40.79893139 eV    
    Non-primitive unit cell  =        -163.19572558 eV    
--------------------------------------------------------------------------------
  Total lattice energy (in kJmol-1): 
    Primitive unit cell      =           -3936.4732 kJ/(mole unit cells)
    Non-primitive unit cell  =          -15745.8928 kJ/(mole unit cells)
--------------------------------------------------------------------------------

  Final asymmetric unit coordinates :

--------------------------------------------------------------------------------
   No.  Atomic        x           y           z         Radius
        Label       (Frac)      (Frac)      (Frac)       (Angs) 
--------------------------------------------------------------------------------
     1  O     c     0.500000    0.500000    0.500000    0.000000
     2  Mg    c     0.000000    0.000000    0.000000    0.000000
     3  O     s     0.500000    0.500000    0.500000    0.000000
--------------------------------------------------------------------------------

  Final Cartesian lattice vectors (Angstroms) :

        0.000000    2.131468    2.131468
        2.131468    0.000000    2.131468
        2.131468    2.131468    0.000000


  Final cell parameters and derivatives :

--------------------------------------------------------------------------------
       a            3.014351 Angstrom     dE/de1(xx)     0.000003 eV/strain
       b            3.014351 Angstrom     dE/de2(yy)     0.000000 eV/strain
       c            3.014351 Angstrom     dE/de3(zz)     0.000000 eV/strain
       alpha       60.000000 Degrees      dE/de4(yz)     0.000000 eV/strain
       beta        60.000000 Degrees      dE/de5(xz)     0.000000 eV/strain
       gamma       60.000000 Degrees      dE/de6(xy)     0.000000 eV/strain
--------------------------------------------------------------------------------

  Primitive cell volume =            19.367189 Angs**3

  Density of cell =      3.456227 g/cm**3

  Non-primitive lattice parameters :

  a    =     4.262936  b   =     4.262936  c    =     4.262936
  alpha=    90.000000  beta=    90.000000  gamma=    90.000000

  Non-primitive cell volume =            77.468756 Angs**3


  Final internal derivatives :

--------------------------------------------------------------------------------
   No.  Atomic          a             b             c           Radius
        Label          (eV)          (eV)          (eV)        (eV/Angs)
--------------------------------------------------------------------------------
      1 O     c       0.000000      0.000000      0.000000      0.000000
      2 Mg    c       0.000000      0.000000      0.000000      0.000000
      3 O     s       0.000000      0.000000      0.000000      0.000000
--------------------------------------------------------------------------------
  Maximum abs         0.000000      0.000000      0.000000      0.000000
--------------------------------------------------------------------------------


  Born effective charge tensors : 

-------------------------------------------------------------------------------
  Atom             x           y             z
-------------------------------------------------------------------------------
    1 O     x      -2.0405     -0.0000      0.0000
            y      -0.0000     -2.0405      0.0000
            z       0.0000      0.0000     -2.0405
-------------------------------------------------------------------------------
    2 Mg    x       2.0405      0.0000     -0.0000
            y       0.0000      2.0405     -0.0000
            z      -0.0000     -0.0000      2.0405
-------------------------------------------------------------------------------




  Elastic Constant Matrix: (Units=GPa)

-------------------------------------------------------------------------------
  Indices      1         2         3         4         5         6    
-------------------------------------------------------------------------------
       1    342.5547  180.2137  180.2137   -0.0000    0.0000   -0.0000
       2    180.2137  342.5547  180.2137   -0.0000   -0.0000   -0.0000
       3    180.2137  180.2137  342.5547   -0.0000    0.0000    0.0000
       4     -0.0000   -0.0000   -0.0000  180.2137   -0.0000   -0.0000
       5      0.0000   -0.0000    0.0000   -0.0000  180.2137   -0.0000
       6     -0.0000   -0.0000    0.0000   -0.0000   -0.0000  180.2137
-------------------------------------------------------------------------------


  Elastic Compliance Matrix: (Units=1/GPa)

-------------------------------------------------------------------------------
  Indices      1         2         3         4         5         6    
-------------------------------------------------------------------------------
       1    0.004581 -0.001579 -0.001579  0.000000 -0.000000  0.000000
       2   -0.001579  0.004581 -0.001579  0.000000  0.000000  0.000000
       3   -0.001579 -0.001579  0.004581 -0.000000 -0.000000 -0.000000
       4    0.000000  0.000000 -0.000000  0.005549  0.000000  0.000000
       5   -0.000000  0.000000 -0.000000  0.000000  0.005549  0.000000
       6    0.000000  0.000000 -0.000000  0.000000  0.000000  0.005549
-------------------------------------------------------------------------------

  Mechanical properties :

-------------------------------------------------------------------------------
  Convention :                    Reuss         Voigt         Hill
-------------------------------------------------------------------------------
  Bulk  Modulus (GPa)     =     234.32737     234.32737     234.32737
  Shear Modulus (GPa)     =     121.10527     140.59643     130.85085
-------------------------------------------------------------------------------
  Velocity S-wave (km/s)  =       5.91944       6.37802       6.15300
  Velocity P-wave (km/s)  =      10.70132      11.04706      10.87556
-------------------------------------------------------------------------------
  Compressibility (1/GPa) =    0.00426753
-------------------------------------------------------------------------------
  Stress axis :                     x             y             z
-------------------------------------------------------------------------------
  Youngs Moduli (GPa)     =     218.30473     218.30473     218.30473
-------------------------------------------------------------------------------
  Poissons Ratio (x)      =                     0.34473       0.34473
  Poissons Ratio (y)      =       0.34473                     0.34473
  Poissons Ratio (z)      =       0.34473       0.34473
-------------------------------------------------------------------------------


  Piezoelectric Strain Matrix: (Units=C/m**2)

-------------------------------------------------------------------------------
  Indices      1         2         3         4         5         6    
-------------------------------------------------------------------------------
       x    -0.00000   0.00000   0.00000  -0.00000   0.00000   0.00000
       y     0.00000   0.00000   0.00000   0.00000  -0.00000   0.00000
       z     0.00000   0.00000   0.00000   0.00000   0.00000  -0.00000
-------------------------------------------------------------------------------


  Piezoelectric Stress Matrix: (Units=10**-11 C/N)

-------------------------------------------------------------------------------
  Indices      1         2         3         4         5         6    
-------------------------------------------------------------------------------
       x    -0.00000   0.00000   0.00000  -0.00000   0.00000   0.00000
       y     0.00000  -0.00000   0.00000   0.00000  -0.00000   0.00000
       z     0.00000   0.00000  -0.00000   0.00000   0.00000  -0.00000
-------------------------------------------------------------------------------


  Static dielectric constant tensor : 

-------------------------------------------------------------------------------
              x         y         z
-------------------------------------------------------------------------------
       x    10.87129   0.00000  -0.00000
       y     0.00000  10.87129  -0.00000
       z    -0.00000  -0.00000  10.87129
--------------------------------------------------------------------------------

  High frequency dielectric constant tensor : 

-------------------------------------------------------------------------------
              x         y         z
-------------------------------------------------------------------------------
       x     2.16136   0.00000  -0.00000
       y     0.00000   2.16136  -0.00000
       z    -0.00000  -0.00000   2.16136
-------------------------------------------------------------------------------

  Static refractive indices : 

-------------------------------------------------------------------------------
    1 =    3.29716      2 =    3.29716      3 =    3.29716
-------------------------------------------------------------------------------

  High frequency refractive indices : 

-------------------------------------------------------------------------------
    1 =    1.47016      2 =    1.47016      3 =    1.47016
-------------------------------------------------------------------------------


  Time to end of optimisation =       0.0059 seconds

********************************************************************************
*  Defect calculation for configuration   1 :                                  *
********************************************************************************

  Total number of defects =      1

  Total charge on defect  =  -1.00

  Defect centre is at atom Mg   

  Region 1 radius =   4.0000      Number of ions =     41

  Number of symmetry inequivalent region 1 ions  =      6

  Region 2 radius =  10.0000      Number of ions =    656

  Number of symmetry inequivalent region 2a ions =     29

  Region 2a mode = 4 : screened electrostatics due to region 1 
                       neglect correction to region 1 forces from 2a
                       region 2a displacements based on defects only

  Region 2a ions will only interact with defects in region 1

  Impurities:

--------------------------------------------------------------------------------
    Specification type     Symbol/Number         x          y          z
--------------------------------------------------------------------------------
    Symbol/Symbol           Li     Mg   
--------------------------------------------------------------------------------


  Region 1 (Absolute coordinates) :

--------------------------------------------------------------------------------
   No.   Atomic       x            y             z         Charge   Occupancy
         Label      (Angs)       (Angs)        (Angs)        (e)    
--------------------------------------------------------------------------------
     1  Li    c      0.0000       0.0000       0.0000      1.00000   1.0000
     2  O     c     -2.1315       0.0000       0.0000      0.86902   1.0000
     3  O     c      0.0000       2.1315       0.0000      0.86902   1.0000
     4  O     c      0.0000       0.0000       2.1315      0.86902   1.0000
     5  O     c      0.0000       0.0000      -2.1315      0.86902   1.0000
     6  O     c      0.0000      -2.1315       0.0000      0.86902   1.0000
     7  O     c      2.1315       0.0000       0.0000      0.86902   1.0000
     8  Mg    c      2.1315       2.1315       0.0000      2.00000   1.0000
     9  Mg    c     -2.1315      -2.1315       0.0000      2.00000   1.0000
    10  Mg    c      2.1315       0.0000       2.1315      2.00000   1.0000
    11  Mg    c      0.0000      -2.1315       2.1315      2.00000   1.0000
    12  Mg    c     -2.1315       0.0000      -2.1315      2.00000   1.0000
    13  Mg    c      0.0000       2.1315      -2.1315      2.00000   1.0000
    14  Mg    c      0.0000       2.1315       2.1315      2.00000   1.0000
    15  Mg    c     -2.1315       0.0000       2.1315      2.00000   1.0000
    16  Mg    c     -2.1315       2.1315       0.0000      2.00000   1.0000
    17  Mg    c      0.0000      -2.1315      -2.1315      2.00000   1.0000
    18  Mg    c      2.1315       0.0000      -2.1315      2.00000   1.0000
    19  Mg    c      2.1315      -2.1315       0.0000      2.00000   1.0000
    20  O     c      2.1315       2.1315       2.1315      0.86902   1.0000
    21  O     c     -2.1315      -2.1315       2.1315      0.86902   1.0000
    22  O     c     -2.1315       2.1315      -2.1315      0.86902   1.0000
    23  O     c     -2.1315       2.1315       2.1315      0.86902   1.0000
    24  O     c     -2.1315      -2.1315      -2.1315      0.86902   1.0000
    25  O     c      2.1315       2.1315      -2.1315      0.86902   1.0000
    26  O     c      2.1315      -2.1315       2.1315      0.86902   1.0000
    27  O     c      2.1315      -2.1315      -2.1315      0.86902   1.0000
    28  O     s     -2.1315       0.0000       0.0000     -2.86902   1.0000
    29  O     s      0.0000       2.1315       0.0000     -2.86902   1.0000
    30  O     s      0.0000       0.0000       2.1315     -2.86902   1.0000
    31  O     s      0.0000       0.0000      -2.1315     -2.86902   1.0000
    32  O     s      0.0000      -2.1315       0.0000     -2.86902   1.0000
    33  O     s      2.1315       0.0000       0.0000     -2.86902   1.0000
    34  O     s      2.1315       2.1315       2.1315     -2.86902   1.0000
    35  O     s     -2.1315      -2.1315       2.1315     -2.86902   1.0000
    36  O     s     -2.1315       2.1315      -2.1315     -2.86902   1.0000
    37  O     s     -2.1315       2.1315       2.1315     -2.86902   1.0000
    38  O     s     -2.1315      -2.1315      -2.1315     -2.86902   1.0000
    39  O     s      2.1315       2.1315      -2.1315     -2.86902   1.0000
    40  O     s      2.1315      -2.1315       2.1315     -2.86902   1.0000
    41  O     s      2.1315      -2.1315      -2.1315     -2.86902   1.0000
------------------------------------------------------------------------------------



  Symmetry reduced region 1 (Relative to defect centre) :

--------------------------------------------------------------------------------
   No.   Atomic       x            y             z       Radius  Multiplicity   
         Label      (Angs)       (Angs)        (Angs)    (Angs)     
--------------------------------------------------------------------------------
     1  Li    c      0.0000       0.0000       0.0000    0.0000     1    Defect
     2  O     c     -2.1315 *     0.0000       0.0000    0.0000     6          
     3  Mg    c      2.1315 *     2.1315       0.0000    0.0000    12          
     4  O     c      2.1315 *     2.1315       2.1315    0.0000     8          
     5  O     s     -2.1315 *     0.0000       0.0000    0.0000     6          
     6  O     s      2.1315 *     2.1315       2.1315    0.0000     8          
--------------------------------------------------------------------------------


  Constraints on symmetry reduced coordinates :

--------------------------------------------------------------------------------
  Constraint no.      Unconstrained     Constrained    Coefficient    
                         Variable         Variable
--------------------------------------------------------------------------------
           1                 3 x             3 y         1.00000
           2                 4 x             4 y         1.00000
           3                 4 x             4 z         1.00000
           4                 6 x             6 y         1.00000
           5                 6 x             6 z         1.00000
--------------------------------------------------------------------------------


  Components of defect energy : 

--------------------------------------------------------------------------------
  Region 1 - region 1                   =     23.86459456 eV
  Region 1 - region 2a (unrelaxed)      =     -5.21854591 eV
  Region 1 - 2a (relaxed - correction)  =     -1.96402038 eV
  Region 1 (Total)                      =     16.68202827 eV
  Region 2a                             =      0.98154186 eV
  Region 2b                             =     -0.63808627 eV
--------------------------------------------------------------------------------
  Total defect energy                   =     17.02548386 eV
--------------------------------------------------------------------------------

  Largest displacement in region 2 =   0.0167 Angstroms


  Number of variables =        5

  Maximum number of calculations  =        1000
  Maximum Hessian update interval =          10
  Maximum step size               =   1.0000000
  Maximum parameter tolerance     =   0.0000100
  Maximum function  tolerance     =   0.0000100
  Maximum gradient  tolerance     =   0.0010000

  Symmetry adapted optimisation

  Symmetry to be used for second derivatives

  Newton-Raphson optimiser to be used

  BFGS hessian update to be used

  Lower half triangular hessian to be used

  Start of defect optimisation :

  Cycle:      0 Defect Energy:  17.025484  Gnorm:    16.225731  CPU:    0.010
  ** Hessian calculated **
  Cycle:      1 Defect Energy:  14.895717  Gnorm:     0.720784  CPU:    0.012
  Cycle:      2 Defect Energy:  14.897623  Gnorm:     0.155537  CPU:    0.013
  Cycle:      3 Defect Energy:  14.898956  Gnorm:     0.031366  CPU:    0.013
  Cycle:      4 Defect Energy:  14.899265  Gnorm:     0.006286  CPU:    0.014
  Cycle:      5 Defect Energy:  14.899328  Gnorm:     0.001258  CPU:    0.015
  Cycle:      6 Defect Energy:  14.899341  Gnorm:     0.000252  CPU:    0.015


  **** Optimisation achieved ****


  Final defect energy  =       14.89934386
  Final defect Gnorm   =        0.00005034

  Components of defect energy : 

--------------------------------------------------------------------------------
  Region 1 - region 1                   =     21.34395737 eV
  Region 1 - region 2a (unrelaxed)      =     -4.98917830 eV
  Region 1 - 2a (relaxed - correction)  =     -1.62992962 eV
  Region 1 (Total)                      =     14.72484946 eV
  Region 2a                             =      0.81258067 eV
  Region 2b                             =     -0.63808627 eV
--------------------------------------------------------------------------------
  Total defect energy                   =     14.89934386 eV
--------------------------------------------------------------------------------

  Largest displacement in region 2 =   0.0167 Angstroms

  Final coordinates of region 1 :

--------------------------------------------------------------------------------
   No.  Atomic        x           y           z          Radius      Charge
        Label       (Angs)      (Angs)      (Angs)       (Angs)       (e) 
--------------------------------------------------------------------------------
     1  Li    c     0.000000    0.000000    0.000000    0.000000    1.000000
     2  O     c    -2.174957    0.000000    0.000000    0.000000    0.869020
     3  O     c     0.000000    0.000000    0.000000    0.000000    0.869020
     4  O     c     0.000000    0.000000    0.000000    0.000000    0.869020
     5  O     c     0.000000    0.000000   -2.174957    0.000000    0.869020
     6  O     c     0.000000    0.000000    0.000000    0.000000    0.869020
     7  O     c     2.174957    0.000000    0.000000    0.000000    0.869020
     8  Mg    c     2.086285    2.086285    0.000000    0.000000    2.000000
     9  Mg    c    -2.086285   -2.086285    0.000000    0.000000    2.000000
    10  Mg    c     2.086285    0.000000    2.086285    0.000000    2.000000
    11  Mg    c     0.000000   -2.086285    2.086285    0.000000    2.000000
    12  Mg    c    -2.086285    0.000000   -2.086285    0.000000    2.000000
    13  Mg    c     0.000000    2.086285   -2.086285    0.000000    2.000000
    14  Mg    c     0.000000    2.086285    2.086285    0.000000    2.000000
    15  Mg    c    -2.086285    0.000000    2.086285    0.000000    2.000000
    16  Mg    c    -2.086285    2.086285    0.000000    0.000000    2.000000
    17  Mg    c     0.000000   -2.086285   -2.086285    0.000000    2.000000
    18  Mg    c     2.086285    0.000000   -2.086285    0.000000    2.000000
    19  Mg    c     2.086285   -2.086285    0.000000    0.000000    2.000000
    20  O     c     2.146400    2.146400    2.146400    0.000000    0.869020
    21  O     c    -2.146400   -2.146400    2.146400    0.000000    0.869020
    22  O     c    -2.146400    2.146400   -2.146400    0.000000    0.869020
    23  O     c    -2.146400    2.146400    2.146400    0.000000    0.869020
    24  O     c    -2.146400   -2.146400   -2.146400    0.000000    0.869020
    25  O     c     2.146400    2.146400   -2.146400    0.000000    0.869020
    26  O     c     2.146400   -2.146400    2.146400    0.000000    0.869020
    27  O     c     2.146400   -2.146400   -2.146400    0.000000    0.869020
    28  O     s    -2.192753    0.000000    0.000000    0.000000   -2.869020
    29  O     s     0.000000    2.192753    0.000000    0.000000   -2.869020
    30  O     s     0.000000    0.000000    2.192753    0.000000   -2.869020
    31  O     s     0.000000    0.000000   -2.192753    0.000000   -2.869020
    32  O     s     0.000000   -2.192753    0.000000    0.000000   -2.869020
    33  O     s     2.192753    0.000000    0.000000    0.000000   -2.869020
    34  O     s     2.147475    2.147475    2.147475    0.000000   -2.869020
    35  O     s    -2.147475   -2.147475    2.147475    0.000000   -2.869020
    36  O     s    -2.147475    2.147475   -2.147475    0.000000   -2.869020
    37  O     s    -2.147475    2.147475    2.147475    0.000000   -2.869020
    38  O     s    -2.147475   -2.147475   -2.147475    0.000000   -2.869020
    39  O     s     2.147475    2.147475   -2.147475    0.000000   -2.869020
    40  O     s     2.147475   -2.147475    2.147475    0.000000   -2.869020
    41  O     s     2.147475   -2.147475   -2.147475    0.000000   -2.869020
--------------------------------------------------------------------------------

  Final coordinates of symmetry reduced region 1 (relative to defect centre):

--------------------------------------------------------------------------------
   No.  Atomic        x           y           z          Charge
        Label       (Angs)      (Angs)      (Angs)         (e) 
--------------------------------------------------------------------------------
     1  Li    c     0.000000    0.000000    0.000000    1.000000
     2  O     c    -2.174957    0.000000    0.000000    0.869020
     3  Mg    c     2.086285    2.086285    0.000000    2.000000
     4  O     c     2.146400    2.146400    2.146400    0.869020
     5  O     s    -2.192753    0.000000    0.000000   -2.869020
     6  O     s     2.147475    2.147475    2.147475   -2.869020
--------------------------------------------------------------------------------


  Final derivatives for region 1 :

--------------------------------------------------------------------------------
   No.  Atomic          x             y             z            Radius
        Label       (eV/Angs)     (eV/Angs)     (eV/Angs)       (eV/Angs)
--------------------------------------------------------------------------------
     1  Li    c       0.000000      0.000000      0.000000      0.000000
     2  O     c      -0.000041      0.000000      0.000000      0.000000
     3  Mg    c       0.000081      0.000000      0.000000      0.000000
     4  O     c       0.000070      0.000000      0.000000      0.000000
     5  O     s       0.000110      0.000000      0.000000      0.000000
     6  O     s      -0.000195      0.000000      0.000000      0.000000
--------------------------------------------------------------------------------


  Time to end of optimisation  =        0.0157 seconds


  Peak dynamic memory used =       2.49 MB 


  Timing analysis for GULP :

--------------------------------------------------------------------------------
  Task / Subroutine                                          Time (Seconds)
--------------------------------------------------------------------------------
  Calculation of real space energy and derivatives                0.0004
  Calculation of real space energy using symmetry                 0.0016
  Calculation for region 1 energy and derivatives (2-b)           0.0045
  Calculation for region 2a energy                                0.0038
  Symmetry generation of equivalent positions                     0.0010
--------------------------------------------------------------------------------
  Total CPU time                                                  0.0157
--------------------------------------------------------------------------------


  Job Finished at 09:58.43 23rd August     2023                               

