********************************************************************************
*                       GENERAL UTILITY LATTICE PROGRAM                        *
*                                 Julian Gale                                  *
*                       Curtin Institute for Computation                       *
*                    School of Molecular and Life Sciences                     *
*                    Curtin University, Western Australia                      *
********************************************************************************
* Version = 6.2.0 * Last modified =  22nd August 2023                          *
********************************************************************************
*  optimise     - perform optimisation run                                     *
*  bulk_noopt   - do not optimise during bulk calculation                      *
*  c6           - use real and reciprocal space sum for C6 terms               *
*  property     - calculate properties for final geometry                      *
*  defect       - perform defect calculation after bulk run                    *
*  molecule     - molecule option activated, Coulomb subtract within molecule  *
********************************************************************************
* Vacancy of SO4 2- in BaSO4 : example of molecular defect calculation         *
********************************************************************************


  Job Started  at 09:58.44 23rd August     2023                               

  Number of CPUs =     1


  Total number of configurations input =      1

********************************************************************************
*  Input for Configuration =   1                                               *
********************************************************************************

  Formula = Ba4S4O16                                                    

  Number of irreducible atoms/shells =       8


  Total number atoms/shells =      40

  Dimensionality = 3               :  Bulk   


  Symmetry :

  Crystal family                   :  Orthorhombic
  Crystal class  (Groth - 1921)    :  Orthorhombic Bipyramidal             

  Space group (centrosymmetric)    :  P N M A         

  Patterson group                  :  P m m m  

  Cartesian lattice vectors (Angstroms) :

        8.849359    0.000000    0.000000
        0.000000    5.511278    0.000000
        0.000000    0.000000    7.122216

  Cell parameters (Angstroms/Degrees):

  a =       8.8494    alpha =  90.0000
  b =       5.5113    beta  =  90.0000
  c =       7.1222    gamma =  90.0000

  Initial cell volume =         347.359573 Angs**3

  Temperature of configuration =   0.00     K 

  Pressure of configuration =         0.000 GPa 

  Fractional coordinates of asymmetric unit :

--------------------------------------------------------------------------------
   No.  Atomic       x           y          z         Charge      Occupancy
        Label      (Frac)      (Frac)     (Frac)        (e)         (Frac)  
--------------------------------------------------------------------------------
      1 Ba    c    0.184032    0.250000    0.158717     2.00000    1.000000    
      2 S     c    0.442932    0.750000    0.185592     1.56000    1.000000    
      3 O     c    0.597632    0.750000    0.101962     0.56000    1.000000    
      4 O     c    0.318384    0.750000    0.040682     0.56000    1.000000    
      5 O     c    0.424643    0.971129    0.309411     0.56000    1.000000    
      6 O     s    0.598916    0.750000    0.101520    -1.45000    1.000000    
      7 O     s    0.319567    0.750000    0.039854    -1.45000    1.000000    
      8 O     s    0.425158    0.970631    0.308700    -1.45000    1.000000    
--------------------------------------------------------------------------------



  Molecule list generated from bond lengths :

  Total number of molecules =     4

--------------------------------------------------------------------------------
Molecule No./:  Atoms
Periodicity  :  
--------------------------------------------------------------------------------
     1  0    : S    c     5 O    c     9 O    c    13 O    c    17 O    c    24
             : O    s    25 O    s    29 O    s    33 O    s    40
     2  0    : S    c     6 O    c    10 O    c    14 O    c    18 O    c    23
             : O    s    26 O    s    30 O    s    34 O    s    39
     3  0    : S    c     7 O    c    11 O    c    15 O    c    19 O    c    22
             : O    s    27 O    s    31 O    s    35 O    s    38
     4  0    : S    c     8 O    c    12 O    c    16 O    c    20 O    c    21
             : O    s    28 O    s    32 O    s    36 O    s    37
--------------------------------------------------------------------------------


********************************************************************************
*  General input information                                                   *
********************************************************************************

  Species output for all configurations : 

--------------------------------------------------------------------------------
  Species    Type    Atomic    Atomic    Charge       Radii (Angs)     Library
                     Number     Mass       (e)     Cova   Ionic  VDW   Symbol
--------------------------------------------------------------------------------
    Ba       Core       56     137.33   2.000000   0.222  0.000  2.000          
    S        Core       16      32.07   1.560000   1.020  0.000  1.700          
    O        Core        8      16.00   0.560000   0.730  0.000  1.360          
    O        Shell       8       0.00  -1.450000   0.730  0.000  1.360          
--------------------------------------------------------------------------------


  Lattice summation method               =    Ewald          (3-D)
                                         =    Parry          (2-D)
                                         =    Saunders et al (1-D)
  Accuracy factor for lattice sums       =   12.000


  Analytic derivatives to be used

  Time limit = Infinity

  Maximum range for interatomic potentials =    100000.000000 Angstroms

  C6 terms to be calculated in real/reciprocal space by one-centre decomposition

  General interatomic potentials :

--------------------------------------------------------------------------------
Atom  Types   Potential      Parameter       Value         Units   Cutoffs(Ang)
  1     2                                                            Min /  Max 
--------------------------------------------------------------------------------
Ba   c O    s Buckingham    Buckingham A     4000.0000    eV        0.000  8.000
                            Buckingham rho  0.29130000    Ang       
                            Buckingham C     0.0000000    eV*Ang^6  
--------------------------------------------------------------------------------
O    c O    s Spring (c-s)  Spring k 2       15.000000    eV*Ang^-2 0.000  0.800
                            Spring k 4       0.0000000    eV*Ang^-4 
--------------------------------------------------------------------------------

  Intramolecular potentials :

--------------------------------------------------------------------------------
Atom  Types   Potential      Parameter       Value         Units   Cutoffs(Ang)
  1     2                                                            Min /  Max 
--------------------------------------------------------------------------------
S    c O    s Morse         Morse  De        4.7560000    eV        0.000  1.800
                            Morse  a0        2.1350000    Ang^-1    
                            Morse  r0        1.5270000    Ang       
--------------------------------------------------------------------------------

  Intermolecular potentials :

--------------------------------------------------------------------------------
Atom  Types   Potential      Parameter       Value         Units   Cutoffs(Ang)
  1     2                                                            Min /  Max 
--------------------------------------------------------------------------------
O    s O    s Buckingham    Buckingham A     150000.00    eV        2.700 16.000
                            Buckingham rho  0.19760000    Ang       
                            Buckingham C     28.000000    eV*Ang^6  
--------------------------------------------------------------------------------

  General Three-body potentials :

--------------------------------------------------------------------------------
  Atoms       Potential      Parameter       Value         Units   Cutoffs(Ang)
  1 / 2 / 3                                                          Min /  Max 
--------------------------------------------------------------------------------
S     core    Harmonic      Three-body cnst  7.7500000    eV*rad^-2 0.000  1.800
O     shel                  Three-body angl  109.47000    degrees   0.000  1.800
O     shel                  Three-body k4    0.0000000    eV*rad^-4 0.000  3.200
                            Three-body k3    0.0000000    eV*rad^-3 
--------------------------------------------------------------------------------

********************************************************************************
*  Output for configuration   1                                                *
********************************************************************************


  Components of energy : 

--------------------------------------------------------------------------------
  Interatomic potentials     =         -65.22459756 eV    
  Three-body potentials      =           0.07969369 eV    
  Monopole - monopole (real) =          68.70953266 eV    
  Monopole - monopole (recip)=        -178.96718781 eV    
  Monopole - monopole (total)=        -110.25765515 eV    
  Dispersion (real+recip)    =          -2.13170807 eV    
--------------------------------------------------------------------------------
  Total lattice energy       =        -177.53426709 eV    
--------------------------------------------------------------------------------
  Total lattice energy       =          -17129.3429 kJ/(mole unit cells)
--------------------------------------------------------------------------------

  Born effective charge tensors : 

-------------------------------------------------------------------------------
  Atom             x           y             z
-------------------------------------------------------------------------------
    1 Ba    x       1.9926      0.0000      0.0694
            y       0.0000      2.2723      0.0000
            z       0.0497      0.0000      2.0557
-------------------------------------------------------------------------------
    2 S     x      -1.1861      0.0000     -0.1059
            y      -0.0000     -0.9757     -0.0000
            z      -0.0834      0.0000     -1.0192
-------------------------------------------------------------------------------
    3 O     x       0.1211      0.0000     -0.3437
            y       0.0000     -0.6598      0.0000
            z      -0.2860      0.0000     -0.4181
-------------------------------------------------------------------------------
    4 O     x      -0.0945      0.0000      0.3951
            y       0.0000     -0.6203     -0.0000
            z       0.3677      0.0000     -0.1456
-------------------------------------------------------------------------------
    5 O     x      -0.4166     -0.0473     -0.0520
            y      -0.0441     -0.0083      0.3717
            z      -0.0213      0.3762     -0.2364
-------------------------------------------------------------------------------




  Elastic Constant Matrix: (Units=GPa)

-------------------------------------------------------------------------------
  Indices      1         2         3         4         5         6    
-------------------------------------------------------------------------------
       1    103.1678   57.8535   46.8713   -0.0000    0.0000   -0.0000
       2     57.8535  101.1154   35.2068    0.0000   -0.0000    0.0000
       3     46.8713   35.2068  133.5610   -0.0000   -0.0000    0.0000
       4      0.0000   -0.0000   -0.0000   12.3686    0.0000   -0.0000
       5      0.0000   -0.0000   -0.0000    0.0000   38.2853    0.0000
       6     -0.0000    0.0000    0.0000   -0.0000    0.0000   27.8466
-------------------------------------------------------------------------------


  Elastic Compliance Matrix: (Units=1/GPa)

-------------------------------------------------------------------------------
  Indices      1         2         3         4         5         6    
-------------------------------------------------------------------------------
       1    0.015582 -0.007720 -0.003433  0.000000 -0.000000  0.000000
       2   -0.007720  0.014714 -0.001169 -0.000000  0.000000 -0.000000
       3   -0.003433 -0.001169  0.009000  0.000000  0.000000 -0.000000
       4   -0.000000  0.000000  0.000000  0.080850 -0.000000  0.000000
       5   -0.000000  0.000000  0.000000 -0.000000  0.026120 -0.000000
       6    0.000000 -0.000000 -0.000000  0.000000 -0.000000  0.035911
-------------------------------------------------------------------------------

  Mechanical properties :

-------------------------------------------------------------------------------
  Convention :                    Reuss         Voigt         Hill
-------------------------------------------------------------------------------
  Bulk  Modulus (GPa)     =      68.25485      68.63415      68.44450
  Shear Modulus (GPa)     =      23.61775      28.89426      26.25600
-------------------------------------------------------------------------------
  Velocity S-wave (km/s)  =       2.30038       2.54441       2.42547
  Velocity P-wave (km/s)  =       4.72745       4.90001       4.81451
-------------------------------------------------------------------------------
  Compressibility (1/GPa) =    0.01465097
-------------------------------------------------------------------------------
  Stress axis :                     x             y             z
-------------------------------------------------------------------------------
  Youngs Moduli (GPa)     =      64.17762      67.96370     111.10709
-------------------------------------------------------------------------------
  Poissons Ratio (x)      =                     0.52466       0.38146
  Poissons Ratio (y)      =       0.49543                     0.12993
  Poissons Ratio (z)      =       0.22034       0.07948
-------------------------------------------------------------------------------


  Piezoelectric Strain Matrix: (Units=C/m**2)

-------------------------------------------------------------------------------
  Indices      1         2         3         4         5         6    
-------------------------------------------------------------------------------
       x     0.00000  -0.00000   0.00000   0.00000  -0.00000  -0.00000
       y     0.00000  -0.00000   0.00000  -0.00000  -0.00000   0.00000
       z    -0.00000   0.00000  -0.00000  -0.00000   0.00000  -0.00000
-------------------------------------------------------------------------------


  Piezoelectric Stress Matrix: (Units=10**-11 C/N)

-------------------------------------------------------------------------------
  Indices      1         2         3         4         5         6    
-------------------------------------------------------------------------------
       x     0.00000  -0.00000  -0.00000   0.00000  -0.00000  -0.00000
       y     0.00000  -0.00000   0.00000  -0.00000  -0.00000   0.00000
       z    -0.00000   0.00000  -0.00000  -0.00000   0.00000  -0.00000
-------------------------------------------------------------------------------


  Static dielectric constant tensor : 

-------------------------------------------------------------------------------
              x         y         z
-------------------------------------------------------------------------------
       x     3.88351  -0.00000  -0.00000
       y    -0.00000  17.89641   0.00000
       z    -0.00000   0.00000   3.91546
--------------------------------------------------------------------------------

  High frequency dielectric constant tensor : 

-------------------------------------------------------------------------------
              x         y         z
-------------------------------------------------------------------------------
       x     1.72925   0.00000   0.00000
       y     0.00000   1.86361   0.00000
       z     0.00000   0.00000   1.78736
-------------------------------------------------------------------------------

  Static refractive indices : 

-------------------------------------------------------------------------------
    1 =    1.97066      2 =    1.97875      3 =    4.23042
-------------------------------------------------------------------------------

  High frequency refractive indices : 

-------------------------------------------------------------------------------
    1 =    1.31501      2 =    1.33692      3 =    1.36514
-------------------------------------------------------------------------------


  Time to end of properties =       0.0131 seconds

********************************************************************************
*  Defect calculation for configuration   1 :                                  *
********************************************************************************

  Total number of defects =      1

  Total charge on defect  =   2.00

  Defect centre is at the centroid of molecule no. =   1

  Region 1 radius =   4.6000      Number of ions =     47

  Number of symmetry inequivalent region 1 ions  =     28

  Region 2 radius =   8.6000      Number of ions =    256

  Number of symmetry inequivalent region 2a ions =    145

  Region 2a mode = 4 : screened electrostatics due to region 1 
                       neglect correction to region 1 forces from 2a
                       region 2a displacements based on defects only

  Region 2a ions will only interact with defects in region 1

  **** Warning - radius of region 1 + 2a is too small for region 2b energy ****
  **** to be valid. Ideally r2 should be greater than  17.52 Angstroms     ****

  Vacancies:

--------------------------------------------------------------------------------
    Specification type     Symbol/Number         x          y          z
--------------------------------------------------------------------------------
    Molecule                          1
--------------------------------------------------------------------------------


  Symmetry reduced region 1 (Relative to defect centre) :

--------------------------------------------------------------------------------
   No.   Atomic       x            y             z       Radius  Multiplicity   
         Label      (Angs)       (Angs)        (Angs)    (Angs)     
--------------------------------------------------------------------------------
     1  O     c     -3.0465 *     0.0000       1.4850 *  0.0000     1          
     2  O     c     -0.3498 *     2.7556 *    -2.0761 *  0.0000     2          
     3  Ba    c     -1.1143 *     0.0000       3.3416 *  0.0000     1          
     4  Ba    c     -2.2819 *     2.7556 *    -0.2195 *  0.0000     2          
     5  Ba    c      2.1428 *     2.7556 *     1.0808 *  0.0000     2          
     6  O     c      2.1214 *     2.7556 *    -1.6397 *  0.0000     2          
     7  O     c      3.3317 *     0.0000       1.9214 *  0.0000     1          
     8  Ba    c     -1.1143 *     0.0000      -3.7806 *  0.0000     1          
     9  S     c      1.0192 *     2.7556 *    -2.6717 *  0.0000     2          
    10  O     c      1.1811 *    -1.5369 *    -3.5536 *  0.0000     2          
    11  O     c      1.1811 *    -1.5369 *     3.5686 *  0.0000     2          
    12  Ba    c      3.3103 *     0.0000      -2.4803 *  0.0000     1          
    13  O     c     -2.3033 *    -2.7556 *     2.5009 *  0.0000     2          
    14  O     c     -0.1526 *     4.2926 *     0.8538 *  0.0000     2          
    15  O     c      4.2720 *    -1.2187 *     0.0075 *  0.0000     2          
    16  O     c     -3.2436 *     1.5369 *    -2.7073 *  0.0000     2          
    17  S     c     -4.4155 *     0.0000       0.8894 *  0.0000     1          
    18  S     c      4.4339 *     0.0000       0.8894 *  0.0000     1          
    19  O     s     -3.0351 *     0.0000       1.4881 *  0.0000     1          
    20  O     s     -0.3611 *     2.7556 *    -2.0730 *  0.0000     2          
    21  O     s      2.1109 *     2.7556 *    -1.6338 *  0.0000     2          
    22  O     s      3.3422 *     0.0000       1.9273 *  0.0000     1          
    23  O     s      1.1765 *    -1.5397 *    -3.5485 *  0.0000     2          
    24  O     s      1.1765 *    -1.5397 *     3.5737 *  0.0000     2          
    25  O     s     -2.3138 *    -2.7556 *     2.4950 *  0.0000     2          
    26  O     s     -0.1481 *     4.2953 *     0.8487 *  0.0000     2          
    27  O     s      4.2766 *    -1.2160 *     0.0126 *  0.0000     2          
    28  O     s     -3.2482 *     1.5397 *    -2.7124 *  0.0000     2          
--------------------------------------------------------------------------------

  Components of defect energy : 

--------------------------------------------------------------------------------
  Region 1 - region 1                   =     54.04845692 eV
  Region 1 - region 2a (unrelaxed)      =    -14.35998462 eV
  Three body defect energy              =     -0.01992342 eV
  Region 1 - 2a (relaxed - correction)  =     -3.27609083 eV
  Region 1 (Total)                      =     36.39245805 eV
  Region 2a                             =      1.63420800 eV
  Region 2b                             =     -2.66808722 eV
--------------------------------------------------------------------------------
  Total defect energy                   =     35.35857884 eV
--------------------------------------------------------------------------------

  Largest displacement in region 2 =   0.3915 Angstroms


  Number of variables =       75

  Maximum number of calculations  =        1000
  Maximum Hessian update interval =          10
  Maximum step size               =   1.0000000
  Maximum parameter tolerance     =   0.0000100
  Maximum function  tolerance     =   0.0000100
  Maximum gradient  tolerance     =   0.0010000

  Symmetry adapted optimisation

  Symmetry to be used for second derivatives

  Newton-Raphson optimiser to be used

  BFGS hessian update to be used

  Lower half triangular hessian to be used

  Start of defect optimisation :

  Cycle:      0 Defect Energy:  35.358579  Gnorm:     0.255370  CPU:    0.037
  ** Hessian calculated **
  Cycle:      1 Defect Energy:  32.609412  Gnorm:     0.143857  CPU:    0.072
  Cycle:      2 Defect Energy:  31.357674  Gnorm:     0.010409  CPU:    0.101
  Cycle:      3 Defect Energy:  31.356782  Gnorm:     0.002256  CPU:    0.108
  Cycle:      4 Defect Energy:  31.358567  Gnorm:     0.000537  CPU:    0.115
  Cycle:      5 Defect Energy:  31.358787  Gnorm:     0.000175  CPU:    0.122
  Cycle:      6 Defect Energy:  31.358856  Gnorm:     0.000025  CPU:    0.129
  Cycle:      7 Defect Energy:  31.358835  Gnorm:     0.000009  CPU:    0.136


  **** Optimisation achieved ****


  Final defect energy  =       31.35883568
  Final defect Gnorm   =        0.00000331

  Components of defect energy : 

--------------------------------------------------------------------------------
  Region 1 - region 1                   =     47.45405561 eV
  Region 1 - region 2a (unrelaxed)      =    -12.14224487 eV
  Three body defect energy              =      0.45213098 eV
  Region 1 - 2a (relaxed - correction)  =     -4.17698162 eV
  Region 1 (Total)                      =     31.58696010 eV
  Region 2a                             =      2.44195077 eV
  Region 2b                             =     -2.67007519 eV
--------------------------------------------------------------------------------
  Total defect energy                   =     31.35883568 eV
--------------------------------------------------------------------------------

  Largest displacement in region 2 =   0.3915 Angstroms

  Final coordinates of region 1 :

--------------------------------------------------------------------------------
   No.  Atomic        x           y           z          Radius      Charge
        Label       (Angs)      (Angs)      (Angs)       (Angs)       (e) 
--------------------------------------------------------------------------------
     1  O     c     0.898862    4.133459    2.753195    0.000000    0.560000
     2  O     c     3.530715    6.802857   -0.696058    0.000000    0.560000
     3  O     c     3.530715    1.464060   -0.696058    0.000000    0.560000
     4  Ba    c     2.687485    4.133459    4.883013    0.000000    2.000000
     5  Ba    c     1.493926    7.117776    1.087743    0.000000    2.000000
     6  Ba    c     1.493926    1.149141    1.087743    0.000000    2.000000
     7  Ba    c     6.169187    7.124170    2.488443    0.000000    2.000000
     8  Ba    c     6.169187    1.142747    2.488443    0.000000    2.000000
     9  O     c     5.931153    6.794150   -0.220410    0.000000    0.560000
    10  O     c     5.931153    1.472767   -0.220410    0.000000    0.560000
    11  O     c     7.194957    4.133459    3.250391    0.000000    0.560000
    12  Ba    c     2.788516    4.133459   -2.617731    0.000000    2.000000
    13  S     c     4.890669    6.883540   -1.303087    0.000000    1.560000
    14  S     c     4.890669    1.383377   -1.303087    0.000000    1.560000
    15  O     c     5.065548    2.630096   -2.137490    0.000000    0.560000
    16  O     c     5.065548    5.636821   -2.137490    0.000000    0.560000
    17  O     c     5.030277    2.556758    4.862817    0.000000    0.560000
    18  O     c     5.030277    5.710159    4.862817    0.000000    0.560000
    19  Ba    c     7.337354    4.133459   -1.230419    0.000000    2.000000
    20  O     c     1.594817    1.425950    3.849911    0.000000    0.560000
    21  O     c     1.594817    6.840967    3.849911    0.000000    0.560000
    22  O     c     3.762205    8.400364    2.150571    0.000000    0.560000
    23  O     c     3.762205   -0.133447    2.150571    0.000000    0.560000
    24  O     c     8.111252    2.931831    1.360096    0.000000    0.560000
    25  O     c     8.111252    5.335086    1.360096    0.000000    0.560000
    26  O     c     0.715427    5.687507   -1.353583    0.000000    0.560000
    27  O     c     0.715427    2.579410   -1.353583    0.000000    0.560000
    28  S     c    -0.501975    4.133459    2.237713    0.000000    1.560000
    29  S     c     8.326519    4.133459    2.252416    0.000000    1.560000
    30  O     s     0.931595    4.133459    2.744882    0.000000   -1.450000
    31  O     s     3.521582    6.781069   -0.673170    0.000000   -1.450000
    32  O     s     3.521582    1.485848   -0.673170    0.000000   -1.450000
    33  O     s     5.911691    6.772810   -0.199358    0.000000   -1.450000
    34  O     s     5.911691    1.494107   -0.199358    0.000000   -1.450000
    35  O     s     7.187831    4.133459    3.241998    0.000000   -1.450000
    36  O     s     5.053565    2.640983   -2.112633    0.000000   -1.450000
    37  O     s     5.053565    5.625934   -2.112633    0.000000   -1.450000
    38  O     s     5.011311    2.556145    4.846429    0.000000   -1.450000
    39  O     s     5.011311    5.710772    4.846429    0.000000   -1.450000
    40  O     s     1.601220    1.438025    3.832188    0.000000   -1.450000
    41  O     s     1.601220    6.828892    3.832188    0.000000   -1.450000
    42  O     s     3.768467    8.378240    2.143257    0.000000   -1.450000
    43  O     s     3.768467   -0.111323    2.143257    0.000000   -1.450000
    44  O     s     8.092055    2.941462    1.360096    0.000000   -1.450000
    45  O     s     8.092055    5.325455    1.360096    0.000000   -1.450000
    46  O     s     0.728722    5.685544   -1.343563    0.000000   -1.450000
    47  O     s     0.728722    2.581373   -1.343563    0.000000   -1.450000
--------------------------------------------------------------------------------

  Final coordinates of symmetry reduced region 1 (relative to defect centre):

--------------------------------------------------------------------------------
   No.  Atomic        x           y           z          Charge
        Label       (Angs)      (Angs)      (Angs)         (e) 
--------------------------------------------------------------------------------
     1  O     c    -3.011606    0.000000    1.403273    0.560000
     2  O     c    -0.379753    2.669398   -2.045980    0.560000
     3  Ba    c    -1.222982    0.000000    3.533091    2.000000
     4  Ba    c    -2.416542    2.984318   -0.262179    2.000000
     5  Ba    c     2.258720    2.990712    1.138521    2.000000
     6  O     c     2.020686    2.660691   -1.570332    0.560000
     7  O     c     3.284489    0.000000    1.900469    0.560000
     8  Ba    c    -1.121951    0.000000   -3.967653    2.000000
     9  S     c     0.980201    2.750081   -2.653009    1.560000
    10  O     c     1.155081   -1.503362   -3.487412    0.560000
    11  O     c     1.119810   -1.576701    3.512895    0.560000
    12  Ba    c     3.426887    0.000000   -2.580341    2.000000
    13  O     c    -2.315651   -2.707509    2.499990    0.560000
    14  O     c    -0.148263    4.266906    0.800649    0.560000
    15  O     c     4.200785   -1.201627    0.010175    0.560000
    16  O     c    -3.195040    1.554049   -2.703505    0.560000
    17  S     c    -4.412443    0.000000    0.887792    1.560000
    18  S     c     4.416052    0.000000    0.902494    1.560000
    19  O     s    -2.978873    0.000000    1.394960   -1.450000
    20  O     s    -0.388885    2.647611   -2.023091   -1.450000
    21  O     s     2.001224    2.639352   -1.549280   -1.450000
    22  O     s     3.277363    0.000000    1.892076   -1.450000
    23  O     s     1.143097   -1.492476   -3.462555   -1.450000
    24  O     s     1.100844   -1.577313    3.496507   -1.450000
    25  O     s    -2.309247   -2.695434    2.482266   -1.450000
    26  O     s    -0.142000    4.244782    0.793335   -1.450000
    27  O     s     4.181587   -1.191996    0.010174   -1.450000
    28  O     s    -3.181746    1.552085   -2.693485   -1.450000
--------------------------------------------------------------------------------


  Final derivatives for region 1 :

--------------------------------------------------------------------------------
   No.  Atomic          x             y             z            Radius
        Label       (eV/Angs)     (eV/Angs)     (eV/Angs)       (eV/Angs)
--------------------------------------------------------------------------------
     1  O     c       0.000001      0.000000      0.000000      0.000000
     2  O     c       0.000005     -0.000012     -0.000005      0.000000
     3  Ba    c       0.000010      0.000000      0.000013      0.000000
     4  Ba    c       0.000001      0.000003     -0.000002      0.000000
     5  Ba    c       0.000035      0.000023     -0.000024      0.000000
     6  O     c      -0.000004     -0.000011      0.000001      0.000000
     7  O     c      -0.000002      0.000000     -0.000000      0.000000
     8  Ba    c       0.000008      0.000000      0.000010      0.000000
     9  S     c       0.000136     -0.000007      0.000003      0.000000
    10  O     c       0.000002      0.000006      0.000010      0.000000
    11  O     c      -0.000005      0.000006     -0.000008      0.000000
    12  Ba    c       0.000006      0.000000      0.000002      0.000000
    13  O     c       0.000002      0.000000     -0.000001      0.000000
    14  O     c      -0.000004     -0.000004     -0.000001      0.000000
    15  O     c      -0.000004      0.000005     -0.000002      0.000000
    16  O     c       0.000004     -0.000002      0.000003      0.000000
    17  S     c       0.000040      0.000000      0.000020      0.000000
    18  S     c       0.000010      0.000000     -0.000020      0.000000
    19  O     s      -0.000049      0.000000     -0.000028      0.000000
    20  O     s      -0.000097      0.000017      0.000070      0.000000
    21  O     s      -0.000034      0.000015     -0.000043      0.000000
    22  O     s      -0.000003      0.000000      0.000013      0.000000
    23  O     s      -0.000029     -0.000002     -0.000019      0.000000
    24  O     s      -0.000017     -0.000104      0.000042      0.000000
    25  O     s      -0.000010      0.000002      0.000012      0.000000
    26  O     s       0.000005      0.000005      0.000002      0.000000
    27  O     s      -0.000001      0.000014      0.000019      0.000000
    28  O     s       0.000001      0.000022     -0.000021      0.000000
--------------------------------------------------------------------------------


  Time to end of optimisation  =        0.1424 seconds


  Peak dynamic memory used =       2.82 MB 


  Timing analysis for GULP :

--------------------------------------------------------------------------------
  Task / Subroutine                                          Time (Seconds)
--------------------------------------------------------------------------------
  Calculation of reciprocal space energy and derivatives          0.0013
  Calculation of real space energy and derivatives                0.0084
  Calculation of molecules and connectivity                       0.0002
  Calculation for region 1 energy and derivatives (2-b)           0.0887
  Calculation for region 1 energy and derivatives (3-b)           0.0011
  Calculation for region 2a energy                                0.0365
  Calculation for region 2b energy                                0.0020
  Symmetry generation of equivalent positions                     0.0002
--------------------------------------------------------------------------------
  Total CPU time                                                  0.1424
--------------------------------------------------------------------------------



  **** GULP has completed with 1 warning - beware! ****

  Job Finished at 09:58.44 23rd August     2023                               

