********************************************************************************
*                       GENERAL UTILITY LATTICE PROGRAM                        *
*                                 Julian Gale                                  *
*                       Curtin Institute for Computation                       *
*                    School of Molecular and Life Sciences                     *
*                    Curtin University, Western Australia                      *
********************************************************************************
* Version = 6.2.0 * Last modified =  22nd August 2023                          *
********************************************************************************
*  synchronous  - transition state search using the synchronous transit method *
*  nomodcoord   - do not mod input coordinates                                 *
*  conjugate    - use conjugate gradients minimiser                            *
********************************************************************************

  Job Started  at 10:13.39 23rd August     2023                               

  Number of CPUs =     1


  Total number of configurations input =      1

********************************************************************************
*  Input for Configuration =   1                                               *
********************************************************************************

  Formula = AlO7Mg3                                                     

  Number of irreducible atoms/shells =      11


  Total number atoms/shells =      11

  Dimensionality = 2               :  Surface



  Surface Cartesian vectors (Angstroms) :

        5.944108    0.000000    0.000000
        0.000000    5.944108    0.000000

  Surface cell parameters (Angstroms/Degrees):

  a =       5.9441    alpha =  90.0000
  b =       5.9441

  Initial surface area   =     35.332420 Angs**2

  Initial surface dipole =      0.000000 e.Angs

  Temperature of configuration =   0.00     K 

  Mixed fractional/Cartesian coordinates of surface :

--------------------------------------------------------------------------------
   No.  Atomic       x           y          z         Charge      Occupancy
        Label      (Frac)      (Frac)     (Angs)        (e)         (Frac)  
--------------------------------------------------------------------------------
      1 Al    c    0.000000    0.000000      0.0000     2.00000    1.000000    
      2 O     c    0.266194 *  0.024876 *    0.0000    -2.00000    1.000000    
      3 Mg    c    0.500000 *  0.003802 *    0.0000     4.00000    1.000000    
      4 O     c    0.733806 *  0.024876 *    0.0000    -2.00000    1.000000    
      5 O     c    0.500000 *  0.260174 *    0.0000    -2.00000    1.000000    
      6 Mg    c    0.000000 *  0.528514 *    0.0000     4.00000    1.000000    
      7 O     c    0.228489 *  0.472135 *    0.0000    -2.00000    1.000000    
      8 O     c    0.000000 *  0.743146 *    0.0000    -2.00000    1.000000    
      9 Mg    c    0.500000 *  0.491682 *    0.0000     4.00000    1.000000    
     10 O     c    0.771511 *  0.472135 *    0.0000    -2.00000    1.000000    
     11 O     c    0.500000 *  0.733692 *    0.0000    -2.00000    1.000000    
--------------------------------------------------------------------------------



********************************************************************************
*  General input information                                                   *
********************************************************************************

  Species output for all configurations : 

--------------------------------------------------------------------------------
  Species    Type    Atomic    Atomic    Charge       Radii (Angs)     Library
                     Number     Mass       (e)     Cova   Ionic  VDW   Symbol
--------------------------------------------------------------------------------
    Al       Core       13      26.98   2.000000   1.350  0.000  2.050          
    O        Core        8      16.00  -2.000000   0.730  0.000  1.360          
    Mg       Core       12      24.31   4.000000   1.100  0.000  1.640          
--------------------------------------------------------------------------------


  Lattice summation method               =    Ewald          (3-D)
                                         =    Parry          (2-D)
                                         =    Saunders et al (1-D)
  Accuracy factor for lattice sums       =   12.000


  Analytic derivatives to be used

  Time limit = Infinity

  Maximum range for interatomic potentials =    100000.000000 Angstroms

  General interatomic potentials :

--------------------------------------------------------------------------------
Atom  Types   Potential      Parameter       Value         Units   Cutoffs(Ang)
  1     2                                                            Min /  Max 
--------------------------------------------------------------------------------
O    c Mg   c Buckingham    Buckingham A     1200.0000    eV        0.000 12.000
                            Buckingham rho  0.30000000    Ang       
                            Buckingham C     0.0000000    eV*Ang^6  
--------------------------------------------------------------------------------
O    c Al   c Buckingham    Buckingham A     800.00000    eV        0.000 12.000
                            Buckingham rho  0.30000000    Ang       
                            Buckingham C     0.0000000    eV*Ang^6  
--------------------------------------------------------------------------------

********************************************************************************
*  Output for configuration   1                                                *
********************************************************************************


  Components of energy : 

--------------------------------------------------------------------------------
  Interatomic potentials     =         122.29391317 eV    
  Monopole - monopole (real) =        -372.56089210 eV    
  Monopole - monopole (recip)=        -193.72720026 eV    
  Monopole - monopole (total)=        -566.28809236 eV    
--------------------------------------------------------------------------------
  Total lattice energy       =        -443.99417919 eV    
--------------------------------------------------------------------------------
  Total lattice energy       =          -42838.6512 kJ/(mole unit cells)
--------------------------------------------------------------------------------


  Synchronous transit run:

  Maximum number of iterations    =            1000
  Maximum force tolerance         =     0.000100000

********************************************************************************
 Bound number =    1
********************************************************************************
 Cell :    5.94411    5.94411  90.0000
--------------------------------------------------------------------------------
     1     0.000000     0.000000     0.000000   0.000000
     2     0.266194     0.024876     0.000000   0.000000
     3     0.500000     0.003802     0.000000   0.000000
     4     0.733806     0.024876     0.000000   0.000000
     5     0.500000     0.260174     0.000000   0.000000
     6     0.000000     0.528514     0.000000   0.000000
     7     0.228489     0.472135     0.000000   0.000000
     8     0.000000     0.743146     0.000000   0.000000
     9     0.500000     0.491682     0.000000   0.000000
    10     0.771511     0.472135     0.000000   0.000000
    11     0.500000     0.733692     0.000000   0.000000
********************************************************************************
 Bound number =    2
********************************************************************************
 Cell :    5.94411    5.94411  90.0000
--------------------------------------------------------------------------------
     1     0.000000     0.000000     0.000000   0.000000
     2     0.024876     0.266194     0.000000   0.000000
     3     0.528514     0.000000     0.000000   0.000000
     4     0.743146     0.000000     0.000000   0.000000
     5     0.472135     0.228489     0.000000   0.000000
     6     0.003802     0.500000     0.000000   0.000000
     7     0.260174     0.500000     0.000000   0.000000
     8     0.024876     0.733806     0.000000   0.000000
     9     0.491683     0.500000     0.000000   0.000000
    10     0.733692     0.500000     0.000000   0.000000
    11     0.472135     0.771511     0.000000   0.000000
--------------------------------------------------------------------------------

********************************************************************************
  Final configuration : 
********************************************************************************
 Cell :    5.94411    5.94411  90.0000
--------------------------------------------------------------------------------
     1     0.000000     0.000000     0.000000    0.00000
     2     0.024876     0.266194     0.000000    0.00000
     3     0.528514     0.000000     0.000000    0.00000
     4     0.743146     0.000000     0.000000    0.00000
     5     0.472135     0.228489     0.000000    0.00000
     6     0.003802     0.500000     0.000000    0.00000
     7     0.260174     0.500000     0.000000    0.00000
     8     0.024876     0.733806     0.000000    0.00000
     9     0.491683     0.500000     0.000000    0.00000
    10     0.733692     0.500000     0.000000    0.00000
    11     0.472135     0.771511     0.000000    0.00000
--------------------------------------------------------------------------------


  Step:      1 : Elow =  -443.99418 Ehigh =  -443.99418 MaxD =     0.24132

  Iteration =      0 Force norm =             0.000028 RMSD =   0.00000000
  Iteration =      1 Force norm =             1.244389 RMSD =   0.00000000
  Iteration =      2 Force norm =             1.044486 RMSD =   0.00006811
  Iteration =      3 Force norm =             0.342529 RMSD =   0.00045800
  Iteration =      4 Force norm =             0.272186 RMSD =   0.00012737
  Iteration =      5 Force norm =             0.210826 RMSD =   0.00032494
  Iteration =      6 Force norm =             0.383662 RMSD =   0.00027110
  Iteration =      7 Force norm =             0.117812 RMSD =   0.00006358
  Iteration =      8 Force norm =             0.100612 RMSD =   0.00003542
  Iteration =      9 Force norm =             0.110177 RMSD =   0.00009210
  Iteration =     10 Force norm =             0.099250 RMSD =   0.00014187
  Iteration =     11 Force norm =             0.090298 RMSD =   0.00007666
  Iteration =     12 Force norm =             0.040359 RMSD =   0.00004658
  Iteration =     13 Force norm =             0.036060 RMSD =   0.00003809
  Iteration =     14 Force norm =             0.043693 RMSD =   0.00004752
  Iteration =     15 Force norm =             0.072866 RMSD =   0.00011390
  Iteration =     16 Force norm =             0.075559 RMSD =   0.00016467
  Iteration =     17 Force norm =             0.036181 RMSD =   0.00005151
  Iteration =     18 Force norm =             0.027088 RMSD =   0.00004562
  Iteration =     19 Force norm =             0.026567 RMSD =   0.00003576
  Iteration =     20 Force norm =             0.018698 RMSD =   0.00002623
  Iteration =     21 Force norm =             0.006880 RMSD =   0.00000683
  Iteration =     22 Force norm =             0.004009 RMSD =   0.00000214
  Iteration =     23 Force norm =             0.003483 RMSD =   0.00000303
  Iteration =     24 Force norm =             0.003983 RMSD =   0.00000545
  Iteration =     25 Force norm =             0.007220 RMSD =   0.00000662
  Iteration =     26 Force norm =             0.006030 RMSD =   0.00000038
  Iteration =     27 Force norm =             0.002786 RMSD =   0.00000270
  Iteration =     28 Force norm =             0.003844 RMSD =   0.00000296
  Iteration =     29 Force norm =             0.006584 RMSD =   0.00001316
  Iteration =     30 Force norm =             0.010099 RMSD =   0.00001961
  Iteration =     31 Force norm =             0.007023 RMSD =   0.00002334
  Iteration =     32 Force norm =             0.003164 RMSD =   0.00000189
  Iteration =     33 Force norm =             0.001912 RMSD =   0.00000219
  Iteration =     34 Force norm =             0.001756 RMSD =   0.00000300
  Iteration =     35 Force norm =             0.001011 RMSD =   0.00000372
  Iteration =     36 Force norm =             0.000592 RMSD =   0.00000055
  Iteration =     37 Force norm =             0.000667 RMSD =   0.00000078
  Iteration =     38 Force norm =             0.000964 RMSD =   0.00000135
  Iteration =     39 Force norm =             0.000916 RMSD =   0.00000120
  Iteration =     40 Force norm =             0.000421 RMSD =   0.00000068
  Iteration =     41 Force norm =             0.000347 RMSD =   0.00000039
  Iteration =     42 Force norm =             0.000401 RMSD =   0.00000048
  Iteration =     43 Force norm =             0.000630 RMSD =   0.00000122
  Iteration =     44 Force norm =             0.000634 RMSD =   0.00000120
  Iteration =     45 Force norm =             0.000312 RMSD =   0.00000026
  Iteration =     46 Force norm =             0.000245 RMSD =   0.00000037
  Iteration =     47 Force norm =             0.000368 RMSD =   0.00000050
  Iteration =     48 Force norm =             0.000270 RMSD =   0.00000056
  Iteration =     49 Force norm =             0.000270 RMSD =   0.00000000
  Iteration =     50 Force norm =             0.000080 RMSD =   0.00000005

  **** Optimisation achieved ****

  Step:      2 : Elow =  -443.99418 Ehigh =  -443.96690 MaxD =     0.23704

  Iteration =      0 Force norm =             0.000069 RMSD =   0.00000000
  Iteration =      1 Force norm =             1.180106 RMSD =   0.00000000
  Iteration =      2 Force norm =             0.941584 RMSD =   0.00007986
  Iteration =      3 Force norm =             0.322381 RMSD =   0.00040450
  Iteration =      4 Force norm =             0.261636 RMSD =   0.00012154
  Iteration =      5 Force norm =             0.214873 RMSD =   0.00034135
  Iteration =      6 Force norm =             0.407514 RMSD =   0.00027113
  Iteration =      7 Force norm =             0.119933 RMSD =   0.00005714
  Iteration =      8 Force norm =             0.096655 RMSD =   0.00003656
  Iteration =      9 Force norm =             0.112843 RMSD =   0.00008547
  Iteration =     10 Force norm =             0.108292 RMSD =   0.00013967
  Iteration =     11 Force norm =             0.107864 RMSD =   0.00008221
  Iteration =     12 Force norm =             0.044590 RMSD =   0.00006106
  Iteration =     13 Force norm =             0.035715 RMSD =   0.00003755
  Iteration =     14 Force norm =             0.043513 RMSD =   0.00004818
  Iteration =     15 Force norm =             0.066853 RMSD =   0.00009898
  Iteration =     16 Force norm =             0.078601 RMSD =   0.00017701
  Iteration =     17 Force norm =             0.036645 RMSD =   0.00005584
  Iteration =     18 Force norm =             0.029302 RMSD =   0.00003358
  Iteration =     19 Force norm =             0.036452 RMSD =   0.00004049
  Iteration =     20 Force norm =             0.021205 RMSD =   0.00002640
  Iteration =     21 Force norm =             0.008773 RMSD =   0.00000651
  Iteration =     22 Force norm =             0.005213 RMSD =   0.00000669
  Iteration =     23 Force norm =             0.005272 RMSD =   0.00000621
  Iteration =     24 Force norm =             0.009600 RMSD =   0.00001253
  Iteration =     25 Force norm =             0.005946 RMSD =   0.00000643
  Iteration =     26 Force norm =             0.006832 RMSD =   0.00000786
  Iteration =     27 Force norm =             0.009686 RMSD =   0.00001822
  Iteration =     28 Force norm =             0.020887 RMSD =   0.00004366
  Iteration =     29 Force norm =             0.009512 RMSD =   0.00002070
  Iteration =     30 Force norm =             0.004452 RMSD =   0.00001296
  Iteration =     31 Force norm =             0.004618 RMSD =   0.00000743
  Iteration =     32 Force norm =             0.003829 RMSD =   0.00000455
  Iteration =     33 Force norm =             0.003829 RMSD =   0.00000000
  Iteration =     34 Force norm =             0.002172 RMSD =   0.00000073
  Iteration =     35 Force norm =             0.002117 RMSD =   0.00000057
  Iteration =     36 Force norm =             0.002218 RMSD =   0.00000308
  Iteration =     37 Force norm =             0.001925 RMSD =   0.00000115
  Iteration =     38 Force norm =             0.001338 RMSD =   0.00000068
  Iteration =     39 Force norm =             0.000934 RMSD =   0.00000193
  Iteration =     40 Force norm =             0.000849 RMSD =   0.00000109
  Iteration =     41 Force norm =             0.000323 RMSD =   0.00000028
  Iteration =     42 Force norm =             0.000218 RMSD =   0.00000019
  Iteration =     43 Force norm =             0.000217 RMSD =   0.00000023
  Iteration =     44 Force norm =             0.000328 RMSD =   0.00000028
  Iteration =     45 Force norm =             0.000151 RMSD =   0.00000007
  Iteration =     46 Force norm =             0.000142 RMSD =   0.00000010
  Iteration =     47 Force norm =             0.000260 RMSD =   0.00000031
  Iteration =     48 Force norm =             0.000335 RMSD =   0.00000057
  Iteration =     49 Force norm =             0.000419 RMSD =   0.00000096
  Iteration =     50 Force norm =             0.000323 RMSD =   0.00000062
  Iteration =     51 Force norm =             0.000191 RMSD =   0.00000018
  Iteration =     52 Force norm =             0.000084 RMSD =   0.00000034

  **** Optimisation achieved ****

  Step:      3 : Elow =  -443.97324 Ehigh =  -443.96690 MaxD =     0.21922

  Iteration =      0 Force norm =             0.000084 RMSD =   0.00000000
  Iteration =      1 Force norm =             1.062506 RMSD =   0.00000000
  Iteration =      2 Force norm =             0.750103 RMSD =   0.00010942
  Iteration =      3 Force norm =             0.280370 RMSD =   0.00033933
  Iteration =      4 Force norm =             0.235102 RMSD =   0.00012167
  Iteration =      5 Force norm =             0.177227 RMSD =   0.00028097
  Iteration =      6 Force norm =             0.321009 RMSD =   0.00025867
  Iteration =      7 Force norm =             0.118843 RMSD =   0.00006802
  Iteration =      8 Force norm =             0.091413 RMSD =   0.00003098
  Iteration =      9 Force norm =             0.086276 RMSD =   0.00008919
  Iteration =     10 Force norm =             0.068674 RMSD =   0.00013784
  Iteration =     11 Force norm =             0.075719 RMSD =   0.00009240
  Iteration =     12 Force norm =             0.038957 RMSD =   0.00005886
  Iteration =     13 Force norm =             0.035615 RMSD =   0.00004991
  Iteration =     14 Force norm =             0.054098 RMSD =   0.00005476
  Iteration =     15 Force norm =             0.044642 RMSD =   0.00007179
  Iteration =     16 Force norm =             0.041635 RMSD =   0.00009351
  Iteration =     17 Force norm =             0.084366 RMSD =   0.00010172
  Iteration =     18 Force norm =             0.019068 RMSD =   0.00003543
  Iteration =     19 Force norm =             0.019068 RMSD =   0.00000000
  Iteration =     20 Force norm =             0.020449 RMSD =   0.00000937
  Iteration =     21 Force norm =             0.011022 RMSD =   0.00000480
  Iteration =     22 Force norm =             0.004954 RMSD =   0.00000875
  Iteration =     23 Force norm =             0.004884 RMSD =   0.00000351
  Iteration =     24 Force norm =             0.003043 RMSD =   0.00000414
  Iteration =     25 Force norm =             0.002976 RMSD =   0.00000254
  Iteration =     26 Force norm =             0.004534 RMSD =   0.00000906
  Iteration =     27 Force norm =             0.011180 RMSD =   0.00001639
  Iteration =     28 Force norm =             0.004915 RMSD =   0.00000554
  Iteration =     29 Force norm =             0.003404 RMSD =   0.00000619
  Iteration =     30 Force norm =             0.002841 RMSD =   0.00000685
  Iteration =     31 Force norm =             0.006394 RMSD =   0.00000881
  Iteration =     32 Force norm =             0.000928 RMSD =   0.00000127
  Iteration =     33 Force norm =             0.000928 RMSD =   0.00000000
  Iteration =     34 Force norm =             0.001030 RMSD =   0.00000045
  Iteration =     35 Force norm =             0.000605 RMSD =   0.00000033
  Iteration =     36 Force norm =             0.000423 RMSD =   0.00000057
  Iteration =     37 Force norm =             0.000500 RMSD =   0.00000033
  Iteration =     38 Force norm =             0.000502 RMSD =   0.00000043
  Iteration =     39 Force norm =             0.000799 RMSD =   0.00000154
  Iteration =     40 Force norm =             0.000659 RMSD =   0.00000076
  Iteration =     41 Force norm =             0.000170 RMSD =   0.00000045
  Iteration =     42 Force norm =             0.000147 RMSD =   0.00000008
  Iteration =     43 Force norm =             0.000238 RMSD =   0.00000045
  Iteration =     44 Force norm =             0.000457 RMSD =   0.00000048
  Iteration =     45 Force norm =             0.000160 RMSD =   0.00000010
  Iteration =     46 Force norm =             0.000108 RMSD =   0.00000013
  Iteration =     47 Force norm =             0.000100 RMSD =   0.00000022
  Iteration =     48 Force norm =             0.000116 RMSD =   0.00000013
  Iteration =     49 Force norm =             0.000037 RMSD =   0.00000009

  **** Optimisation achieved ****

  Step:      4 : Elow =  -443.96690 Ehigh =  -443.89646 MaxD =     0.21381

  Iteration =      0 Force norm =             0.000080 RMSD =   0.00000000
  Iteration =      1 Force norm =             1.016293 RMSD =   0.00000000
  Iteration =      2 Force norm =             0.662758 RMSD =   0.00012504
  Iteration =      3 Force norm =             0.276816 RMSD =   0.00030247
  Iteration =      4 Force norm =             0.242491 RMSD =   0.00012670
  Iteration =      5 Force norm =             0.197557 RMSD =   0.00031082
  Iteration =      6 Force norm =             0.401373 RMSD =   0.00030406
  Iteration =      7 Force norm =             0.128306 RMSD =   0.00006777
  Iteration =      8 Force norm =             0.108884 RMSD =   0.00004056
  Iteration =      9 Force norm =             0.126034 RMSD =   0.00011487
  Iteration =     10 Force norm =             0.122674 RMSD =   0.00019567
  Iteration =     11 Force norm =             0.132990 RMSD =   0.00013648
  Iteration =     12 Force norm =             0.060103 RMSD =   0.00009992
  Iteration =     13 Force norm =             0.049857 RMSD =   0.00007735
  Iteration =     14 Force norm =             0.063484 RMSD =   0.00008232
  Iteration =     15 Force norm =             0.083551 RMSD =   0.00013848
  Iteration =     16 Force norm =             0.051701 RMSD =   0.00008513
  Iteration =     17 Force norm =             0.035193 RMSD =   0.00005760
  Iteration =     18 Force norm =             0.037446 RMSD =   0.00004305
  Iteration =     19 Force norm =             0.023628 RMSD =   0.00002031
  Iteration =     20 Force norm =             0.012557 RMSD =   0.00000761
  Iteration =     21 Force norm =             0.009765 RMSD =   0.00001085
  Iteration =     22 Force norm =             0.013703 RMSD =   0.00001384
  Iteration =     23 Force norm =             0.016025 RMSD =   0.00003453
  Iteration =     24 Force norm =             0.023403 RMSD =   0.00004711
  Iteration =     25 Force norm =             0.014510 RMSD =   0.00004148
  Iteration =     26 Force norm =             0.017971 RMSD =   0.00004890
  Iteration =     27 Force norm =             0.014088 RMSD =   0.00000811
  Iteration =     28 Force norm =             0.014088 RMSD =   0.00000000
  Iteration =     29 Force norm =             0.009689 RMSD =   0.00000078
  Iteration =     30 Force norm =             0.003462 RMSD =   0.00000200
  Iteration =     31 Force norm =             0.003236 RMSD =   0.00000085
  Iteration =     32 Force norm =             0.002039 RMSD =   0.00000304
  Iteration =     33 Force norm =             0.003330 RMSD =   0.00000223
  Iteration =     34 Force norm =             0.001975 RMSD =   0.00000116
  Iteration =     35 Force norm =             0.001370 RMSD =   0.00000290
  Iteration =     36 Force norm =             0.001373 RMSD =   0.00000211
  Iteration =     37 Force norm =             0.001026 RMSD =   0.00000191
  Iteration =     38 Force norm =             0.000716 RMSD =   0.00000072
  Iteration =     39 Force norm =             0.000728 RMSD =   0.00000135
  Iteration =     40 Force norm =             0.001890 RMSD =   0.00000165
  Iteration =     41 Force norm =             0.000768 RMSD =   0.00000028
  Iteration =     42 Force norm =             0.000531 RMSD =   0.00000066
  Iteration =     43 Force norm =             0.000639 RMSD =   0.00000148
  Iteration =     44 Force norm =             0.000432 RMSD =   0.00000144
  Iteration =     45 Force norm =             0.000283 RMSD =   0.00000019
  Iteration =     46 Force norm =             0.000150 RMSD =   0.00000011
  Iteration =     47 Force norm =             0.000139 RMSD =   0.00000007
  Iteration =     48 Force norm =             0.000197 RMSD =   0.00000016
  Iteration =     49 Force norm =             0.000198 RMSD =   0.00000026
  Iteration =     50 Force norm =             0.000375 RMSD =   0.00000052
  Iteration =     51 Force norm =             0.000199 RMSD =   0.00000043
  Iteration =     52 Force norm =             0.000120 RMSD =   0.00000013
  Iteration =     53 Force norm =             0.000111 RMSD =   0.00000023
  Iteration =     54 Force norm =             0.000094 RMSD =   0.00000011

  **** Optimisation achieved ****

  Step:      5 : Elow =  -443.90940 Ehigh =  -443.89646 MaxD =     0.19893

  Iteration =      0 Force norm =             0.000094 RMSD =   0.00000000
  Iteration =      1 Force norm =             0.887561 RMSD =   0.00000000
  Iteration =      2 Force norm =             0.758099 RMSD =   0.00004469
  Iteration =      3 Force norm =             0.230432 RMSD =   0.00033344
  Iteration =      4 Force norm =             0.192186 RMSD =   0.00009560
  Iteration =      5 Force norm =             0.140512 RMSD =   0.00023202
  Iteration =      6 Force norm =             0.212749 RMSD =   0.00023199
  Iteration =      7 Force norm =             0.138980 RMSD =   0.00007753
  Iteration =      8 Force norm =             0.081314 RMSD =   0.00003036
  Iteration =      9 Force norm =             0.070927 RMSD =   0.00005815
  Iteration =     10 Force norm =             0.067689 RMSD =   0.00010597
  Iteration =     11 Force norm =             0.126222 RMSD =   0.00014597
  Iteration =     12 Force norm =             0.035022 RMSD =   0.00003565
  Iteration =     13 Force norm =             0.027356 RMSD =   0.00001515
  Iteration =     14 Force norm =             0.029974 RMSD =   0.00003820
  Iteration =     15 Force norm =             0.054506 RMSD =   0.00005959
  Iteration =     16 Force norm =             0.025064 RMSD =   0.00004874
  Iteration =     17 Force norm =             0.017452 RMSD =   0.00002101
  Iteration =     18 Force norm =             0.019985 RMSD =   0.00002716
  Iteration =     19 Force norm =             0.025522 RMSD =   0.00001877
  Iteration =     20 Force norm =             0.025522 RMSD =   0.00000000
  Iteration =     21 Force norm =             0.005336 RMSD =   0.00000422
  Iteration =     22 Force norm =             0.004463 RMSD =   0.00000084
  Iteration =     23 Force norm =             0.004344 RMSD =   0.00000658
  Iteration =     24 Force norm =             0.005645 RMSD =   0.00000278
  Iteration =     25 Force norm =             0.002580 RMSD =   0.00000091
  Iteration =     26 Force norm =             0.001637 RMSD =   0.00000125
  Iteration =     27 Force norm =             0.003122 RMSD =   0.00000463
  Iteration =     28 Force norm =             0.003545 RMSD =   0.00000605
  Iteration =     29 Force norm =             0.007513 RMSD =   0.00000583
  Iteration =     30 Force norm =             0.002103 RMSD =   0.00000381
  Iteration =     31 Force norm =             0.000901 RMSD =   0.00000109
  Iteration =     32 Force norm =             0.000753 RMSD =   0.00000110
  Iteration =     33 Force norm =             0.000501 RMSD =   0.00000106
  Iteration =     34 Force norm =             0.000369 RMSD =   0.00000015
  Iteration =     35 Force norm =             0.000264 RMSD =   0.00000036
  Iteration =     36 Force norm =             0.000299 RMSD =   0.00000029
  Iteration =     37 Force norm =             0.000466 RMSD =   0.00000145
  Iteration =     38 Force norm =             0.000302 RMSD =   0.00000034
  Iteration =     39 Force norm =             0.000269 RMSD =   0.00000015
  Iteration =     40 Force norm =             0.000191 RMSD =   0.00000022
  Iteration =     41 Force norm =             0.000143 RMSD =   0.00000011
  Iteration =     42 Force norm =             0.000142 RMSD =   0.00000000
  Iteration =     43 Force norm =             0.000196 RMSD =   0.00000014
  Iteration =     44 Force norm =             0.000099 RMSD =   0.00000009

  **** Optimisation achieved ****

  Step:      6 : Elow =  -443.89646 Ehigh =  -443.78814 MaxD =     0.19306

  Iteration =      0 Force norm =             0.000037 RMSD =   0.00000000
  Iteration =      1 Force norm =             0.864339 RMSD =   0.00000000
  Iteration =      2 Force norm =             0.728287 RMSD =   0.00004839
  Iteration =      3 Force norm =             0.260435 RMSD =   0.00033518
  Iteration =      4 Force norm =             0.234722 RMSD =   0.00011481
  Iteration =      5 Force norm =             0.195917 RMSD =   0.00035616
  Iteration =      6 Force norm =             0.452061 RMSD =   0.00040633
  Iteration =      7 Force norm =             0.175245 RMSD =   0.00009506
  Iteration =      8 Force norm =             0.128330 RMSD =   0.00004621
  Iteration =      9 Force norm =             0.131686 RMSD =   0.00013087
  Iteration =     10 Force norm =             0.114415 RMSD =   0.00021311
  Iteration =     11 Force norm =             0.218163 RMSD =   0.00030339
  Iteration =     12 Force norm =             0.053093 RMSD =   0.00006907
  Iteration =     13 Force norm =             0.040072 RMSD =   0.00002374
  Iteration =     14 Force norm =             0.046766 RMSD =   0.00006898
  Iteration =     15 Force norm =             0.092734 RMSD =   0.00007946
  Iteration =     16 Force norm =             0.041146 RMSD =   0.00004629
  Iteration =     17 Force norm =             0.025628 RMSD =   0.00003991
  Iteration =     18 Force norm =             0.024284 RMSD =   0.00002906
  Iteration =     19 Force norm =             0.033291 RMSD =   0.00004586
  Iteration =     20 Force norm =             0.014261 RMSD =   0.00001238
  Iteration =     21 Force norm =             0.014261 RMSD =   0.00000000
  Iteration =     22 Force norm =             0.010565 RMSD =   0.00000281
  Iteration =     23 Force norm =             0.012215 RMSD =   0.00000732
  Iteration =     24 Force norm =             0.012914 RMSD =   0.00001335
  Iteration =     25 Force norm =             0.028029 RMSD =   0.00002754
  Iteration =     26 Force norm =             0.011455 RMSD =   0.00001179
  Iteration =     27 Force norm =             0.008438 RMSD =   0.00001161
  Iteration =     28 Force norm =             0.008076 RMSD =   0.00001479
  Iteration =     29 Force norm =             0.018860 RMSD =   0.00001818
  Iteration =     30 Force norm =             0.004694 RMSD =   0.00000686
  Iteration =     31 Force norm =             0.004694 RMSD =   0.00000000
  Iteration =     32 Force norm =             0.005240 RMSD =   0.00000229
  Iteration =     33 Force norm =             0.004294 RMSD =   0.00000250
  Iteration =     34 Force norm =             0.006811 RMSD =   0.00000835
  Iteration =     35 Force norm =             0.004888 RMSD =   0.00000392
  Iteration =     36 Force norm =             0.002546 RMSD =   0.00000134
  Iteration =     37 Force norm =             0.001467 RMSD =   0.00000178
  Iteration =     38 Force norm =             0.001505 RMSD =   0.00000303
  Iteration =     39 Force norm =             0.003389 RMSD =   0.00000292
  Iteration =     40 Force norm =             0.001274 RMSD =   0.00000077
  Iteration =     41 Force norm =             0.001079 RMSD =   0.00000093
  Iteration =     42 Force norm =             0.001584 RMSD =   0.00000293
  Iteration =     43 Force norm =             0.001648 RMSD =   0.00000418
  Iteration =     44 Force norm =             0.001947 RMSD =   0.00000159
  Iteration =     45 Force norm =             0.000634 RMSD =   0.00000315
  Iteration =     46 Force norm =             0.000360 RMSD =   0.00000062
  Iteration =     47 Force norm =             0.000269 RMSD =   0.00000014
  Iteration =     48 Force norm =             0.000269 RMSD =   0.00000000
  Iteration =     49 Force norm =             0.000407 RMSD =   0.00000032
  Iteration =     50 Force norm =             0.000253 RMSD =   0.00000022
  Iteration =     51 Force norm =             0.000192 RMSD =   0.00000015
  Iteration =     52 Force norm =             0.000173 RMSD =   0.00000029
  Iteration =     53 Force norm =             0.000158 RMSD =   0.00000014
  Iteration =     54 Force norm =             0.000075 RMSD =   0.00000007

  **** Optimisation achieved ****

  Step:      7 : Elow =  -443.81675 Ehigh =  -443.78814 MaxD =     0.18047

  Iteration =      0 Force norm =             0.000075 RMSD =   0.00000000
  Iteration =      1 Force norm =             0.735260 RMSD =   0.00000000
  Iteration =      2 Force norm =             0.518845 RMSD =   0.00007862
  Iteration =      3 Force norm =             0.190056 RMSD =   0.00024345
  Iteration =      4 Force norm =             0.165458 RMSD =   0.00009077
  Iteration =      5 Force norm =             0.117505 RMSD =   0.00018090
  Iteration =      6 Force norm =             0.175541 RMSD =   0.00019223
  Iteration =      7 Force norm =             0.116146 RMSD =   0.00007233
  Iteration =      8 Force norm =             0.066717 RMSD =   0.00002833
  Iteration =      9 Force norm =             0.054078 RMSD =   0.00004898
  Iteration =     10 Force norm =             0.062530 RMSD =   0.00009566
  Iteration =     11 Force norm =             0.121019 RMSD =   0.00013406
  Iteration =     12 Force norm =             0.030542 RMSD =   0.00002151
  Iteration =     13 Force norm =             0.021455 RMSD =   0.00001258
  Iteration =     14 Force norm =             0.021191 RMSD =   0.00002954
  Iteration =     15 Force norm =             0.035643 RMSD =   0.00003506
  Iteration =     16 Force norm =             0.014692 RMSD =   0.00003090
  Iteration =     17 Force norm =             0.011127 RMSD =   0.00001208
  Iteration =     18 Force norm =             0.012473 RMSD =   0.00001845
  Iteration =     19 Force norm =             0.005161 RMSD =   0.00000458
  Iteration =     20 Force norm =             0.003239 RMSD =   0.00000203
  Iteration =     21 Force norm =             0.001927 RMSD =   0.00000291
  Iteration =     22 Force norm =             0.002884 RMSD =   0.00000292
  Iteration =     23 Force norm =             0.001525 RMSD =   0.00000170
  Iteration =     24 Force norm =             0.001304 RMSD =   0.00000200
  Iteration =     25 Force norm =             0.001492 RMSD =   0.00000227
  Iteration =     26 Force norm =             0.003005 RMSD =   0.00000498
  Iteration =     27 Force norm =             0.001713 RMSD =   0.00000262
  Iteration =     28 Force norm =             0.001713 RMSD =   0.00000000
  Iteration =     29 Force norm =             0.000951 RMSD =   0.00000037
  Iteration =     30 Force norm =             0.000818 RMSD =   0.00000020
  Iteration =     31 Force norm =             0.001330 RMSD =   0.00000137
  Iteration =     32 Force norm =             0.000963 RMSD =   0.00000044
  Iteration =     33 Force norm =             0.000228 RMSD =   0.00000029
  Iteration =     34 Force norm =             0.000182 RMSD =   0.00000006
  Iteration =     35 Force norm =             0.000215 RMSD =   0.00000041
  Iteration =     36 Force norm =             0.000254 RMSD =   0.00000029
  Iteration =     37 Force norm =             0.000205 RMSD =   0.00000040
  Iteration =     38 Force norm =             0.000092 RMSD =   0.00000007

  **** Optimisation achieved ****

  Step:      8 : Elow =  -443.78814 Ehigh =  -443.66561 MaxD =     0.17440

  Iteration =      0 Force norm =             0.000099 RMSD =   0.00000000
  Iteration =      1 Force norm =             0.729115 RMSD =   0.00000000
  Iteration =      2 Force norm =             0.526237 RMSD =   0.00008062
  Iteration =      3 Force norm =             0.255806 RMSD =   0.00027885
  Iteration =      4 Force norm =             0.253757 RMSD =   0.00014284
  Iteration =      5 Force norm =             0.213454 RMSD =   0.00040981
  Iteration =      6 Force norm =             0.430842 RMSD =   0.00048646
  Iteration =      7 Force norm =             0.183857 RMSD =   0.00013441
  Iteration =      8 Force norm =             0.123469 RMSD =   0.00006456
  Iteration =      9 Force norm =             0.110016 RMSD =   0.00012426
  Iteration =     10 Force norm =             0.204282 RMSD =   0.00019099
  Iteration =     11 Force norm =             0.045894 RMSD =   0.00007823
  Iteration =     12 Force norm =             0.038709 RMSD =   0.00001974
  Iteration =     13 Force norm =             0.038771 RMSD =   0.00008878
  Iteration =     14 Force norm =             0.035879 RMSD =   0.00002704
  Iteration =     15 Force norm =             0.028008 RMSD =   0.00002089
  Iteration =     16 Force norm =             0.025688 RMSD =   0.00005203
  Iteration =     17 Force norm =             0.024360 RMSD =   0.00002276
  Iteration =     18 Force norm =             0.024360 RMSD =   0.00000000
  Iteration =     19 Force norm =             0.015907 RMSD =   0.00000687
  Iteration =     20 Force norm =             0.013116 RMSD =   0.00000362
  Iteration =     21 Force norm =             0.016310 RMSD =   0.00002628
  Iteration =     22 Force norm =             0.028566 RMSD =   0.00001876
  Iteration =     23 Force norm =             0.013704 RMSD =   0.00000339
  Iteration =     24 Force norm =             0.008231 RMSD =   0.00000971
  Iteration =     25 Force norm =             0.010617 RMSD =   0.00001584
  Iteration =     26 Force norm =             0.009465 RMSD =   0.00002091
  Iteration =     27 Force norm =             0.009974 RMSD =   0.00000664
  Iteration =     28 Force norm =             0.002534 RMSD =   0.00001131
  Iteration =     29 Force norm =             0.002534 RMSD =   0.00000000
  Iteration =     30 Force norm =             0.002212 RMSD =   0.00000091
  Iteration =     31 Force norm =             0.001657 RMSD =   0.00000069
  Iteration =     32 Force norm =             0.001288 RMSD =   0.00000223
  Iteration =     33 Force norm =             0.002365 RMSD =   0.00000208
  Iteration =     34 Force norm =             0.001328 RMSD =   0.00000113
  Iteration =     35 Force norm =             0.001152 RMSD =   0.00000202
  Iteration =     36 Force norm =             0.001173 RMSD =   0.00000195
  Iteration =     37 Force norm =             0.002300 RMSD =   0.00000330
  Iteration =     38 Force norm =             0.001145 RMSD =   0.00000107
  Iteration =     39 Force norm =             0.001145 RMSD =   0.00000000
  Iteration =     40 Force norm =             0.000363 RMSD =   0.00000020
  Iteration =     41 Force norm =             0.000315 RMSD =   0.00000007
  Iteration =     42 Force norm =             0.000317 RMSD =   0.00000056
  Iteration =     43 Force norm =             0.000254 RMSD =   0.00000017
  Iteration =     44 Force norm =             0.000171 RMSD =   0.00000005
  Iteration =     45 Force norm =             0.000182 RMSD =   0.00000022
  Iteration =     46 Force norm =             0.000211 RMSD =   0.00000026
  Iteration =     47 Force norm =             0.000251 RMSD =   0.00000018
  Iteration =     48 Force norm =             0.000077 RMSD =   0.00000023

  **** Optimisation achieved ****

  Step:      9 : Elow =  -443.69647 Ehigh =  -443.66561 MaxD =     0.16420

  Iteration =      0 Force norm =             0.000077 RMSD =   0.00000000
  Iteration =      1 Force norm =             0.601940 RMSD =   0.00000000
  Iteration =      2 Force norm =             0.522364 RMSD =   0.00002866
  Iteration =      3 Force norm =             0.158758 RMSD =   0.00024110
  Iteration =      4 Force norm =             0.137021 RMSD =   0.00007227
  Iteration =      5 Force norm =             0.100240 RMSD =   0.00014990
  Iteration =      6 Force norm =             0.200364 RMSD =   0.00016908
  Iteration =      7 Force norm =             0.068874 RMSD =   0.00004165
  Iteration =      8 Force norm =             0.051505 RMSD =   0.00001986
  Iteration =      9 Force norm =             0.043372 RMSD =   0.00006070
  Iteration =     10 Force norm =             0.100712 RMSD =   0.00011336
  Iteration =     11 Force norm =             0.030582 RMSD =   0.00005450
  Iteration =     12 Force norm =             0.019241 RMSD =   0.00001461
  Iteration =     13 Force norm =             0.013179 RMSD =   0.00002747
  Iteration =     14 Force norm =             0.025511 RMSD =   0.00002444
  Iteration =     15 Force norm =             0.011177 RMSD =   0.00001880
  Iteration =     16 Force norm =             0.011177 RMSD =   0.00000000
  Iteration =     17 Force norm =             0.006861 RMSD =   0.00000265
  Iteration =     18 Force norm =             0.006567 RMSD =   0.00000293
  Iteration =     19 Force norm =             0.007509 RMSD =   0.00000858
  Iteration =     20 Force norm =             0.004154 RMSD =   0.00000276
  Iteration =     21 Force norm =             0.002953 RMSD =   0.00000098
  Iteration =     22 Force norm =             0.002963 RMSD =   0.00000308
  Iteration =     23 Force norm =             0.001585 RMSD =   0.00000311
  Iteration =     24 Force norm =             0.001813 RMSD =   0.00000215
  Iteration =     25 Force norm =             0.001079 RMSD =   0.00000112
  Iteration =     26 Force norm =             0.001027 RMSD =   0.00000005
  Iteration =     27 Force norm =             0.000604 RMSD =   0.00000126
  Iteration =     28 Force norm =             0.000661 RMSD =   0.00000086
  Iteration =     29 Force norm =             0.001685 RMSD =   0.00000270
  Iteration =     30 Force norm =             0.000751 RMSD =   0.00000070
  Iteration =     31 Force norm =             0.000751 RMSD =   0.00000000
  Iteration =     32 Force norm =             0.000365 RMSD =   0.00000016
  Iteration =     33 Force norm =             0.000298 RMSD =   0.00000007
  Iteration =     34 Force norm =             0.000254 RMSD =   0.00000044
  Iteration =     35 Force norm =             0.000135 RMSD =   0.00000009
  Iteration =     36 Force norm =             0.000071 RMSD =   0.00000004

  **** Optimisation achieved ****

  Step:     10 : Elow =  -443.66561 Ehigh =  -443.52544 MaxD =     0.15813

  Iteration =      0 Force norm =             0.000092 RMSD =   0.00000000
  Iteration =      1 Force norm =             0.617520 RMSD =   0.00000000
  Iteration =      2 Force norm =             0.553424 RMSD =   0.00002654
  Iteration =      3 Force norm =             0.254793 RMSD =   0.00031332
  Iteration =      4 Force norm =             0.257450 RMSD =   0.00014489
  Iteration =      5 Force norm =             0.217823 RMSD =   0.00047452
  Iteration =      6 Force norm =             0.331416 RMSD =   0.00028154
  Iteration =      7 Force norm =             0.162730 RMSD =   0.00022778
  Iteration =      8 Force norm =             0.114913 RMSD =   0.00011249
  Iteration =      9 Force norm =             0.103398 RMSD =   0.00011437
  Iteration =     10 Force norm =             0.097470 RMSD =   0.00008124
  Iteration =     11 Force norm =             0.034748 RMSD =   0.00004883
  Iteration =     12 Force norm =             0.028119 RMSD =   0.00002280
  Iteration =     13 Force norm =             0.024537 RMSD =   0.00004869
  Iteration =     14 Force norm =             0.045868 RMSD =   0.00004542
  Iteration =     15 Force norm =             0.018883 RMSD =   0.00001487
  Iteration =     16 Force norm =             0.012350 RMSD =   0.00001384
  Iteration =     17 Force norm =             0.014845 RMSD =   0.00001849
  Iteration =     18 Force norm =             0.022182 RMSD =   0.00002909
  Iteration =     19 Force norm =             0.008673 RMSD =   0.00000704
  Iteration =     20 Force norm =             0.006622 RMSD =   0.00000376
  Iteration =     21 Force norm =             0.006806 RMSD =   0.00000723
  Iteration =     22 Force norm =             0.009190 RMSD =   0.00001461
  Iteration =     23 Force norm =             0.005230 RMSD =   0.00000784
  Iteration =     24 Force norm =             0.002565 RMSD =   0.00000282
  Iteration =     25 Force norm =             0.001653 RMSD =   0.00000247
  Iteration =     26 Force norm =             0.002801 RMSD =   0.00000193
  Iteration =     27 Force norm =             0.000702 RMSD =   0.00000046
  Iteration =     28 Force norm =             0.000523 RMSD =   0.00000023
  Iteration =     29 Force norm =             0.000564 RMSD =   0.00000047
  Iteration =     30 Force norm =             0.000637 RMSD =   0.00000082
  Iteration =     31 Force norm =             0.001181 RMSD =   0.00000135
  Iteration =     32 Force norm =             0.001181 RMSD =   0.00000000
  Iteration =     33 Force norm =             0.000403 RMSD =   0.00000025
  Iteration =     34 Force norm =             0.000351 RMSD =   0.00000008
  Iteration =     35 Force norm =             0.000706 RMSD =   0.00000082
  Iteration =     36 Force norm =             0.000564 RMSD =   0.00000025
  Iteration =     37 Force norm =             0.000193 RMSD =   0.00000015
  Iteration =     38 Force norm =             0.000146 RMSD =   0.00000006
  Iteration =     39 Force norm =             0.000237 RMSD =   0.00000040
  Iteration =     40 Force norm =             0.000224 RMSD =   0.00000037
  Iteration =     41 Force norm =             0.000259 RMSD =   0.00000026
  Iteration =     42 Force norm =             0.000095 RMSD =   0.00000029

  **** Optimisation achieved ****

  Step:     11 : Elow =  -443.56825 Ehigh =  -443.52544 MaxD =     0.14920

  Iteration =      0 Force norm =             0.000095 RMSD =   0.00000000
  Iteration =      1 Force norm =             0.491697 RMSD =   0.00000000
  Iteration =      2 Force norm =             0.353859 RMSD =   0.00005258
  Iteration =      3 Force norm =             0.133563 RMSD =   0.00017645
  Iteration =      4 Force norm =             0.121229 RMSD =   0.00006957
  Iteration =      5 Force norm =             0.084984 RMSD =   0.00011871
  Iteration =      6 Force norm =             0.161378 RMSD =   0.00013292
  Iteration =      7 Force norm =             0.049579 RMSD =   0.00003265
  Iteration =      8 Force norm =             0.041820 RMSD =   0.00001595
  Iteration =      9 Force norm =             0.041844 RMSD =   0.00006583
  Iteration =     10 Force norm =             0.052736 RMSD =   0.00004475
  Iteration =     11 Force norm =             0.027142 RMSD =   0.00005308
  Iteration =     12 Force norm =             0.017022 RMSD =   0.00003147
  Iteration =     13 Force norm =             0.010760 RMSD =   0.00001654
  Iteration =     14 Force norm =             0.006986 RMSD =   0.00000749
  Iteration =     15 Force norm =             0.006986 RMSD =   0.00000000
  Iteration =     16 Force norm =             0.007568 RMSD =   0.00000419
  Iteration =     17 Force norm =             0.005387 RMSD =   0.00000542
  Iteration =     18 Force norm =             0.006964 RMSD =   0.00000872
  Iteration =     19 Force norm =             0.005472 RMSD =   0.00000566
  Iteration =     20 Force norm =             0.001635 RMSD =   0.00000199
  Iteration =     21 Force norm =             0.000975 RMSD =   0.00000070
  Iteration =     22 Force norm =             0.000890 RMSD =   0.00000091
  Iteration =     23 Force norm =             0.001499 RMSD =   0.00000143
  Iteration =     24 Force norm =             0.000734 RMSD =   0.00000100
  Iteration =     25 Force norm =             0.000628 RMSD =   0.00000059
  Iteration =     26 Force norm =             0.000495 RMSD =   0.00000128
  Iteration =     27 Force norm =             0.000811 RMSD =   0.00000056
  Iteration =     28 Force norm =             0.000374 RMSD =   0.00000071
  Iteration =     29 Force norm =             0.000175 RMSD =   0.00000035
  Iteration =     30 Force norm =             0.000214 RMSD =   0.00000022
  Iteration =     31 Force norm =             0.000214 RMSD =   0.00000000
  Iteration =     32 Force norm =             0.000064 RMSD =   0.00000004

  **** Optimisation achieved ****

  Step:     12 : Elow =  -443.52544 Ehigh =  -443.39088 MaxD =     0.14336

  Iteration =      0 Force norm =             0.000071 RMSD =   0.00000000
  Iteration =      1 Force norm =             0.523445 RMSD =   0.00000000
  Iteration =      2 Force norm =             0.431262 RMSD =   0.00004358
  Iteration =      3 Force norm =             0.251759 RMSD =   0.00028857
  Iteration =      4 Force norm =             0.272995 RMSD =   0.00017767
  Iteration =      5 Force norm =             0.223291 RMSD =   0.00048700
  Iteration =      6 Force norm =             0.294664 RMSD =   0.00022732
  Iteration =      7 Force norm =             0.140328 RMSD =   0.00017764
  Iteration =      8 Force norm =             0.100510 RMSD =   0.00010220
  Iteration =      9 Force norm =             0.091581 RMSD =   0.00011572
  Iteration =     10 Force norm =             0.088487 RMSD =   0.00008714
  Iteration =     11 Force norm =             0.028029 RMSD =   0.00002082
  Iteration =     12 Force norm =             0.021520 RMSD =   0.00001264
  Iteration =     13 Force norm =             0.020226 RMSD =   0.00002896
  Iteration =     14 Force norm =             0.018818 RMSD =   0.00003049
  Iteration =     15 Force norm =             0.025932 RMSD =   0.00003322
  Iteration =     16 Force norm =             0.022554 RMSD =   0.00000173
  Iteration =     17 Force norm =             0.017007 RMSD =   0.00000443
  Iteration =     18 Force norm =             0.007230 RMSD =   0.00002118
  Iteration =     19 Force norm =             0.006297 RMSD =   0.00000545
  Iteration =     20 Force norm =             0.012377 RMSD =   0.00001690
  Iteration =     21 Force norm =             0.004590 RMSD =   0.00000310
  Iteration =     22 Force norm =             0.004590 RMSD =   0.00000000
  Iteration =     23 Force norm =             0.002819 RMSD =   0.00000087
  Iteration =     24 Force norm =             0.002875 RMSD =   0.00000117
  Iteration =     25 Force norm =             0.002404 RMSD =   0.00000292
  Iteration =     26 Force norm =             0.002550 RMSD =   0.00000311
  Iteration =     27 Force norm =             0.002113 RMSD =   0.00000248
  Iteration =     28 Force norm =             0.000648 RMSD =   0.00000090
  Iteration =     29 Force norm =             0.000496 RMSD =   0.00000028
  Iteration =     30 Force norm =             0.000619 RMSD =   0.00000084
  Iteration =     31 Force norm =             0.000323 RMSD =   0.00000026
  Iteration =     32 Force norm =             0.000224 RMSD =   0.00000011
  Iteration =     33 Force norm =             0.000249 RMSD =   0.00000027
  Iteration =     34 Force norm =             0.000232 RMSD =   0.00000034
  Iteration =     35 Force norm =             0.000423 RMSD =   0.00000057
  Iteration =     36 Force norm =             0.000336 RMSD =   0.00000002
  Iteration =     37 Force norm =             0.000336 RMSD =   0.00000000
  Iteration =     38 Force norm =             0.000111 RMSD =   0.00000007
  Iteration =     39 Force norm =             0.000090 RMSD =   0.00000002

  **** Optimisation achieved ****

  Step:     13 : Elow =  -443.42575 Ehigh =  -443.39088 MaxD =     0.13579

  Iteration =      0 Force norm =             0.000090 RMSD =   0.00000000
  Iteration =      1 Force norm =             0.397542 RMSD =   0.00000000
  Iteration =      2 Force norm =             0.190786 RMSD =   0.00009948
  Iteration =      3 Force norm =             0.112362 RMSD =   0.00009934
  Iteration =      4 Force norm =             0.108730 RMSD =   0.00007977
  Iteration =      5 Force norm =             0.072464 RMSD =   0.00009189
  Iteration =      6 Force norm =             0.083377 RMSD =   0.00008008
  Iteration =      7 Force norm =             0.039139 RMSD =   0.00002693
  Iteration =      8 Force norm =             0.036257 RMSD =   0.00001919
  Iteration =      9 Force norm =             0.041348 RMSD =   0.00006241
  Iteration =     10 Force norm =             0.041250 RMSD =   0.00003382
  Iteration =     11 Force norm =             0.020018 RMSD =   0.00002832
  Iteration =     12 Force norm =             0.012770 RMSD =   0.00001797
  Iteration =     13 Force norm =             0.009328 RMSD =   0.00000935
  Iteration =     14 Force norm =             0.005672 RMSD =   0.00000482
  Iteration =     15 Force norm =             0.003116 RMSD =   0.00000706
  Iteration =     16 Force norm =             0.002650 RMSD =   0.00000147
  Iteration =     17 Force norm =             0.001980 RMSD =   0.00000414
  Iteration =     18 Force norm =             0.002360 RMSD =   0.00000140
  Iteration =     19 Force norm =             0.000886 RMSD =   0.00000128
  Iteration =     20 Force norm =             0.000583 RMSD =   0.00000073
  Iteration =     21 Force norm =             0.000833 RMSD =   0.00000070
  Iteration =     22 Force norm =             0.000422 RMSD =   0.00000054
  Iteration =     23 Force norm =             0.000338 RMSD =   0.00000042
  Iteration =     24 Force norm =             0.000479 RMSD =   0.00000059
  Iteration =     25 Force norm =             0.000364 RMSD =   0.00000060
  Iteration =     26 Force norm =             0.000201 RMSD =   0.00000014
  Iteration =     27 Force norm =             0.000150 RMSD =   0.00000024
  Iteration =     28 Force norm =             0.000164 RMSD =   0.00000021
  Iteration =     29 Force norm =             0.000040 RMSD =   0.00000007

  **** Optimisation achieved ****

  Step:     14 : Elow =  -443.39088 Ehigh =  -443.24904 MaxD =     0.13026

  Iteration =      0 Force norm =             0.000064 RMSD =   0.00000000
  Iteration =      1 Force norm =             0.447557 RMSD =   0.00000000
  Iteration =      2 Force norm =             0.325815 RMSD =   0.00006972
  Iteration =      3 Force norm =             0.244726 RMSD =   0.00025890
  Iteration =      4 Force norm =             0.291158 RMSD =   0.00022467
  Iteration =      5 Force norm =             0.218015 RMSD =   0.00045039
  Iteration =      6 Force norm =             0.376728 RMSD =   0.00032459
  Iteration =      7 Force norm =             0.114602 RMSD =   0.00007296
  Iteration =      8 Force norm =             0.079150 RMSD =   0.00005382
  Iteration =      9 Force norm =             0.063376 RMSD =   0.00009404
  Iteration =     10 Force norm =             0.068785 RMSD =   0.00005296
  Iteration =     11 Force norm =             0.020484 RMSD =   0.00006057
  Iteration =     12 Force norm =             0.014978 RMSD =   0.00001308
  Iteration =     13 Force norm =             0.013407 RMSD =   0.00002596
  Iteration =     14 Force norm =             0.021834 RMSD =   0.00001642
  Iteration =     15 Force norm =             0.021834 RMSD =   0.00000000
  Iteration =     16 Force norm =             0.013220 RMSD =   0.00000198
  Iteration =     17 Force norm =             0.007997 RMSD =   0.00000381
  Iteration =     18 Force norm =             0.009275 RMSD =   0.00000328
  Iteration =     19 Force norm =             0.010379 RMSD =   0.00001156
  Iteration =     20 Force norm =             0.009720 RMSD =   0.00001444
  Iteration =     21 Force norm =             0.008528 RMSD =   0.00000822
  Iteration =     22 Force norm =             0.002637 RMSD =   0.00000693
  Iteration =     23 Force norm =             0.001807 RMSD =   0.00000204
  Iteration =     24 Force norm =             0.002520 RMSD =   0.00000253
  Iteration =     25 Force norm =             0.002520 RMSD =   0.00000000
  Iteration =     26 Force norm =             0.000916 RMSD =   0.00000051
  Iteration =     27 Force norm =             0.000775 RMSD =   0.00000017
  Iteration =     28 Force norm =             0.000567 RMSD =   0.00000148
  Iteration =     29 Force norm =             0.000915 RMSD =   0.00000074
  Iteration =     30 Force norm =             0.000481 RMSD =   0.00000034
  Iteration =     31 Force norm =             0.000218 RMSD =   0.00000045
  Iteration =     32 Force norm =             0.000200 RMSD =   0.00000015
  Iteration =     33 Force norm =             0.000415 RMSD =   0.00000064
  Iteration =     34 Force norm =             0.000138 RMSD =   0.00000013
  Iteration =     35 Force norm =             0.000138 RMSD =   0.00000000
  Iteration =     36 Force norm =             0.000103 RMSD =   0.00000005
  Iteration =     37 Force norm =             0.000076 RMSD =   0.00000003

  **** Optimisation achieved ****

  Step:     15 : Elow =  -443.29196 Ehigh =  -443.24904 MaxD =     0.12341

  Iteration =      0 Force norm =             0.000076 RMSD =   0.00000000
  Iteration =      1 Force norm =             0.322721 RMSD =   0.00000000
  Iteration =      2 Force norm =             0.318836 RMSD =   0.00018595
  Iteration =      3 Force norm =             0.095400 RMSD =   0.00006291
  Iteration =      4 Force norm =             0.072493 RMSD =   0.00002858
  Iteration =      5 Force norm =             0.071493 RMSD =   0.00008383
  Iteration =      6 Force norm =             0.120147 RMSD =   0.00008791
  Iteration =      7 Force norm =             0.033955 RMSD =   0.00002429
  Iteration =      8 Force norm =             0.026855 RMSD =   0.00001107
  Iteration =      9 Force norm =             0.032749 RMSD =   0.00003059
  Iteration =     10 Force norm =             0.029183 RMSD =   0.00004546
  Iteration =     11 Force norm =             0.025975 RMSD =   0.00002412
  Iteration =     12 Force norm =             0.008675 RMSD =   0.00001496
  Iteration =     13 Force norm =             0.005500 RMSD =   0.00000514
  Iteration =     14 Force norm =             0.003958 RMSD =   0.00000475
  Iteration =     15 Force norm =             0.006908 RMSD =   0.00000451
  Iteration =     16 Force norm =             0.006908 RMSD =   0.00000000
  Iteration =     17 Force norm =             0.003626 RMSD =   0.00000067
  Iteration =     18 Force norm =             0.001379 RMSD =   0.00000083
  Iteration =     19 Force norm =             0.001389 RMSD =   0.00000039
  Iteration =     20 Force norm =             0.001251 RMSD =   0.00000193
  Iteration =     21 Force norm =             0.001166 RMSD =   0.00000151
  Iteration =     22 Force norm =             0.001167 RMSD =   0.00000128
  Iteration =     23 Force norm =             0.000931 RMSD =   0.00000011
  Iteration =     24 Force norm =             0.000759 RMSD =   0.00000009
  Iteration =     25 Force norm =             0.000599 RMSD =   0.00000008
  Iteration =     26 Force norm =             0.000463 RMSD =   0.00000007
  Iteration =     27 Force norm =             0.000338 RMSD =   0.00000008
  Iteration =     28 Force norm =             0.000248 RMSD =   0.00000007
  Iteration =     29 Force norm =             0.000187 RMSD =   0.00000007
  Iteration =     30 Force norm =             0.000178 RMSD =   0.00000001
  Iteration =     31 Force norm =             0.000169 RMSD =   0.00000002
  Iteration =     32 Force norm =             0.000169 RMSD =   0.00000000
  Iteration =     33 Force norm =             0.000306 RMSD =   0.00000014
  Iteration =     34 Force norm =             0.000201 RMSD =   0.00000008
  Iteration =     35 Force norm =             0.000125 RMSD =   0.00000036
  Iteration =     36 Force norm =             0.000102 RMSD =   0.00000016
  Iteration =     37 Force norm =             0.000098 RMSD =   0.00000011

  **** Optimisation achieved ****

  Step:     16 : Elow =  -443.24904 Ehigh =  -443.12373 MaxD =     0.11826

  Iteration =      0 Force norm =             0.000040 RMSD =   0.00000000
  Iteration =      1 Force norm =             0.383167 RMSD =   0.00000000
  Iteration =      2 Force norm =             0.254223 RMSD =   0.00011110
  Iteration =      3 Force norm =             0.235188 RMSD =   0.00022019
  Iteration =      4 Force norm =             0.319496 RMSD =   0.00031031
  Iteration =      5 Force norm =             0.212811 RMSD =   0.00037398
  Iteration =      6 Force norm =             0.156670 RMSD =   0.00015158
  Iteration =      7 Force norm =             0.096276 RMSD =   0.00006538
  Iteration =      8 Force norm =             0.070163 RMSD =   0.00007518
  Iteration =      9 Force norm =             0.106812 RMSD =   0.00010617
  Iteration =     10 Force norm =             0.021652 RMSD =   0.00003408
  Iteration =     11 Force norm =             0.015999 RMSD =   0.00000790
  Iteration =     12 Force norm =             0.012597 RMSD =   0.00002018
  Iteration =     13 Force norm =             0.014309 RMSD =   0.00001018
  Iteration =     14 Force norm =             0.009189 RMSD =   0.00000807
  Iteration =     15 Force norm =             0.006930 RMSD =   0.00001207
  Iteration =     16 Force norm =             0.007617 RMSD =   0.00001239
  Iteration =     17 Force norm =             0.007617 RMSD =   0.00000000
  Iteration =     18 Force norm =             0.004411 RMSD =   0.00000162
  Iteration =     19 Force norm =             0.004449 RMSD =   0.00000198
  Iteration =     20 Force norm =             0.004850 RMSD =   0.00000539
  Iteration =     21 Force norm =             0.005012 RMSD =   0.00000302
  Iteration =     22 Force norm =             0.002303 RMSD =   0.00000268
  Iteration =     23 Force norm =             0.001665 RMSD =   0.00000170
  Iteration =     24 Force norm =             0.001929 RMSD =   0.00000230
  Iteration =     25 Force norm =             0.002679 RMSD =   0.00000343
  Iteration =     26 Force norm =             0.000861 RMSD =   0.00000117
  Iteration =     27 Force norm =             0.000861 RMSD =   0.00000000
  Iteration =     28 Force norm =             0.000523 RMSD =   0.00000026
  Iteration =     29 Force norm =             0.000345 RMSD =   0.00000011
  Iteration =     30 Force norm =             0.000201 RMSD =   0.00000033
  Iteration =     31 Force norm =             0.000260 RMSD =   0.00000015
  Iteration =     32 Force norm =             0.000151 RMSD =   0.00000007
  Iteration =     33 Force norm =             0.000093 RMSD =   0.00000016

  **** Optimisation achieved ****

  Step:     17 : Elow =  -443.15246 Ehigh =  -443.12373 MaxD =     0.11231

  Iteration =      0 Force norm =             0.000093 RMSD =   0.00000000
  Iteration =      1 Force norm =             0.259675 RMSD =   0.00000000
  Iteration =      2 Force norm =             0.160548 RMSD =   0.00010631
  Iteration =      3 Force norm =             0.080193 RMSD =   0.00004580
  Iteration =      4 Force norm =             0.063575 RMSD =   0.00004389
  Iteration =      5 Force norm =             0.062135 RMSD =   0.00006885
  Iteration =      6 Force norm =             0.054272 RMSD =   0.00004072
  Iteration =      7 Force norm =             0.026883 RMSD =   0.00002433
  Iteration =      8 Force norm =             0.024017 RMSD =   0.00002050
  Iteration =      9 Force norm =             0.026770 RMSD =   0.00003341
  Iteration =     10 Force norm =             0.037074 RMSD =   0.00004367
  Iteration =     11 Force norm =             0.008862 RMSD =   0.00000784
  Iteration =     12 Force norm =             0.008232 RMSD =   0.00000048
  Iteration =     13 Force norm =             0.004670 RMSD =   0.00000814
  Iteration =     14 Force norm =             0.004755 RMSD =   0.00000405
  Iteration =     15 Force norm =             0.001870 RMSD =   0.00000286
  Iteration =     16 Force norm =             0.000942 RMSD =   0.00000060
  Iteration =     17 Force norm =             0.000819 RMSD =   0.00000062
  Iteration =     18 Force norm =             0.000765 RMSD =   0.00000109
  Iteration =     19 Force norm =             0.001153 RMSD =   0.00000143
  Iteration =     20 Force norm =             0.000731 RMSD =   0.00000054
  Iteration =     21 Force norm =             0.000731 RMSD =   0.00000000
  Iteration =     22 Force norm =             0.000285 RMSD =   0.00000018
  Iteration =     23 Force norm =             0.000213 RMSD =   0.00000006
  Iteration =     24 Force norm =             0.000199 RMSD =   0.00000025
  Iteration =     25 Force norm =             0.000176 RMSD =   0.00000022
  Iteration =     26 Force norm =             0.000265 RMSD =   0.00000023
  Iteration =     27 Force norm =             0.000080 RMSD =   0.00000006

  **** Optimisation achieved ****

  Step:     18 : Elow =  -443.12373 Ehigh =  -442.99465 MaxD =     0.10749

  Iteration =      0 Force norm =             0.000098 RMSD =   0.00000000
  Iteration =      1 Force norm =             0.330952 RMSD =   0.00000000
  Iteration =      2 Force norm =             0.277502 RMSD =   0.00017242
  Iteration =      3 Force norm =             0.222312 RMSD =   0.00016625
  Iteration =      4 Force norm =             0.207802 RMSD =   0.00033897
  Iteration =      5 Force norm =             0.223734 RMSD =   0.00023719
  Iteration =      6 Force norm =             0.104621 RMSD =   0.00013745
  Iteration =      7 Force norm =             0.076745 RMSD =   0.00006262
  Iteration =      8 Force norm =             0.069377 RMSD =   0.00008052
  Iteration =      9 Force norm =             0.102259 RMSD =   0.00008249
  Iteration =     10 Force norm =             0.078585 RMSD =   0.00000758
  Iteration =     11 Force norm =             0.058170 RMSD =   0.00000652
  Iteration =     12 Force norm =             0.043981 RMSD =   0.00000467
  Iteration =     13 Force norm =             0.032978 RMSD =   0.00000391
  Iteration =     14 Force norm =             0.023229 RMSD =   0.00000393
  Iteration =     15 Force norm =             0.016801 RMSD =   0.00000317
  Iteration =     16 Force norm =             0.012654 RMSD =   0.00000264
  Iteration =     17 Force norm =             0.012071 RMSD =   0.00000049
  Iteration =     18 Force norm =             0.012071 RMSD =   0.00000000
  Iteration =     19 Force norm =             0.009233 RMSD =   0.00000126
  Iteration =     20 Force norm =             0.008528 RMSD =   0.00000581
  Iteration =     21 Force norm =             0.008874 RMSD =   0.00000670
  Iteration =     22 Force norm =             0.010342 RMSD =   0.00001290
  Iteration =     23 Force norm =             0.006953 RMSD =   0.00001072
  Iteration =     24 Force norm =             0.003588 RMSD =   0.00000236
  Iteration =     25 Force norm =             0.002279 RMSD =   0.00000366
  Iteration =     26 Force norm =             0.003047 RMSD =   0.00000386
  Iteration =     27 Force norm =             0.000908 RMSD =   0.00000095
  Iteration =     28 Force norm =             0.000908 RMSD =   0.00000000
  Iteration =     29 Force norm =             0.001053 RMSD =   0.00000050
  Iteration =     30 Force norm =             0.000660 RMSD =   0.00000029
  Iteration =     31 Force norm =             0.000367 RMSD =   0.00000081
  Iteration =     32 Force norm =             0.000517 RMSD =   0.00000035
  Iteration =     33 Force norm =             0.000234 RMSD =   0.00000012
  Iteration =     34 Force norm =             0.000143 RMSD =   0.00000018
  Iteration =     35 Force norm =             0.000110 RMSD =   0.00000011
  Iteration =     36 Force norm =             0.000217 RMSD =   0.00000016
  Iteration =     37 Force norm =             0.000049 RMSD =   0.00000004

  **** Optimisation achieved ****

  Step:     19 : Elow =  -443.03049 Ehigh =  -442.99465 MaxD =     0.10198

  Iteration =      0 Force norm =             0.000049 RMSD =   0.00000000
  Iteration =      1 Force norm =             0.210398 RMSD =   0.00000000
  Iteration =      2 Force norm =             0.135937 RMSD =   0.00008739
  Iteration =      3 Force norm =             0.067764 RMSD =   0.00003836
  Iteration =      4 Force norm =             0.053298 RMSD =   0.00003870
  Iteration =      5 Force norm =             0.051004 RMSD =   0.00005623
  Iteration =      6 Force norm =             0.044108 RMSD =   0.00003418
  Iteration =      7 Force norm =             0.021921 RMSD =   0.00002008
  Iteration =      8 Force norm =             0.019635 RMSD =   0.00001697
  Iteration =      9 Force norm =             0.021513 RMSD =   0.00002757
  Iteration =     10 Force norm =             0.028298 RMSD =   0.00003288
  Iteration =     11 Force norm =             0.006630 RMSD =   0.00000634
  Iteration =     12 Force norm =             0.006630 RMSD =   0.00000000
  Iteration =     13 Force norm =             0.005097 RMSD =   0.00000273
  Iteration =     14 Force norm =             0.003135 RMSD =   0.00000373
  Iteration =     15 Force norm =             0.003346 RMSD =   0.00000203
  Iteration =     16 Force norm =             0.001090 RMSD =   0.00000172
  Iteration =     17 Force norm =             0.000828 RMSD =   0.00000035
  Iteration =     18 Force norm =             0.001062 RMSD =   0.00000158
  Iteration =     19 Force norm =             0.001368 RMSD =   0.00000090
  Iteration =     20 Force norm =             0.000426 RMSD =   0.00000035
  Iteration =     21 Force norm =             0.000276 RMSD =   0.00000016
  Iteration =     22 Force norm =             0.000307 RMSD =   0.00000045
  Iteration =     23 Force norm =             0.000249 RMSD =   0.00000042
  Iteration =     24 Force norm =             0.000258 RMSD =   0.00000020
  Iteration =     25 Force norm =             0.000066 RMSD =   0.00000020

  **** Optimisation achieved ****

  Step:     20 : Elow =  -442.99465 Ehigh =  -442.88689 MaxD =     0.09754

  Iteration =      0 Force norm =             0.000080 RMSD =   0.00000000
  Iteration =      1 Force norm =             0.417456 RMSD =   0.00000000
  Iteration =      2 Force norm =             0.294399 RMSD =   0.00008591
  Iteration =      3 Force norm =             0.241084 RMSD =   0.00026164
  Iteration =      4 Force norm =             0.288538 RMSD =   0.00026913
  Iteration =      5 Force norm =             0.216806 RMSD =   0.00037916
  Iteration =      6 Force norm =             0.122876 RMSD =   0.00009713
  Iteration =      7 Force norm =             0.086882 RMSD =   0.00005767
  Iteration =      8 Force norm =             0.071804 RMSD =   0.00009101
  Iteration =      9 Force norm =             0.106502 RMSD =   0.00009929
  Iteration =     10 Force norm =             0.018830 RMSD =   0.00002975
  Iteration =     11 Force norm =             0.012607 RMSD =   0.00000736
  Iteration =     12 Force norm =             0.008607 RMSD =   0.00001359
  Iteration =     13 Force norm =             0.011053 RMSD =   0.00001044
  Iteration =     14 Force norm =             0.008018 RMSD =   0.00000620
  Iteration =     15 Force norm =             0.008018 RMSD =   0.00000000
  Iteration =     16 Force norm =             0.005034 RMSD =   0.00000079
  Iteration =     17 Force norm =             0.003410 RMSD =   0.00000173
  Iteration =     18 Force norm =             0.003669 RMSD =   0.00000169
  Iteration =     19 Force norm =             0.002930 RMSD =   0.00000400
  Iteration =     20 Force norm =             0.002897 RMSD =   0.00000478
  Iteration =     21 Force norm =             0.001605 RMSD =   0.00000202
  Iteration =     22 Force norm =             0.000534 RMSD =   0.00000096
  Iteration =     23 Force norm =             0.000355 RMSD =   0.00000046
  Iteration =     24 Force norm =             0.000677 RMSD =   0.00000047
  Iteration =     25 Force norm =             0.000677 RMSD =   0.00000000
  Iteration =     26 Force norm =             0.000169 RMSD =   0.00000015
  Iteration =     27 Force norm =             0.000121 RMSD =   0.00000003
  Iteration =     28 Force norm =             0.000106 RMSD =   0.00000011
  Iteration =     29 Force norm =             0.000062 RMSD =   0.00000010

  **** Optimisation achieved ****

  Step:     21 : Elow =  -442.88689 Ehigh =  -442.77998 MaxD =     0.08865

  Iteration =      0 Force norm =             0.000066 RMSD =   0.00000000
  Iteration =      1 Force norm =             0.353041 RMSD =   0.00000000
  Iteration =      2 Force norm =             0.259961 RMSD =   0.00014204
  Iteration =      3 Force norm =             0.217070 RMSD =   0.00018269
  Iteration =      4 Force norm =             0.259338 RMSD =   0.00033291
  Iteration =      5 Force norm =             0.274367 RMSD =   0.00030691
  Iteration =      6 Force norm =             0.091403 RMSD =   0.00007183
  Iteration =      7 Force norm =             0.067105 RMSD =   0.00004126
  Iteration =      8 Force norm =             0.060384 RMSD =   0.00007704
  Iteration =      9 Force norm =             0.056446 RMSD =   0.00004209
  Iteration =     10 Force norm =             0.017495 RMSD =   0.00004032
  Iteration =     11 Force norm =             0.009282 RMSD =   0.00001120
  Iteration =     12 Force norm =             0.005564 RMSD =   0.00000978
  Iteration =     13 Force norm =             0.004557 RMSD =   0.00000206
  Iteration =     14 Force norm =             0.004557 RMSD =   0.00000000
  Iteration =     15 Force norm =             0.003382 RMSD =   0.00000152
  Iteration =     16 Force norm =             0.003317 RMSD =   0.00000224
  Iteration =     17 Force norm =             0.004466 RMSD =   0.00000570
  Iteration =     18 Force norm =             0.005059 RMSD =   0.00000551
  Iteration =     19 Force norm =             0.001480 RMSD =   0.00000163
  Iteration =     20 Force norm =             0.000944 RMSD =   0.00000069
  Iteration =     21 Force norm =             0.000842 RMSD =   0.00000127
  Iteration =     22 Force norm =             0.000831 RMSD =   0.00000061
  Iteration =     23 Force norm =             0.000300 RMSD =   0.00000052
  Iteration =     24 Force norm =             0.000189 RMSD =   0.00000020
  Iteration =     25 Force norm =             0.000207 RMSD =   0.00000018
  Iteration =     26 Force norm =             0.000096 RMSD =   0.00000010

  **** Optimisation achieved ****

  Step:     22 : Elow =  -442.77998 Ehigh =  -442.69352 MaxD =     0.08045

  Iteration =      0 Force norm =             0.000062 RMSD =   0.00000000
  Iteration =      1 Force norm =             0.297496 RMSD =   0.00000000
  Iteration =      2 Force norm =             0.412686 RMSD =   0.00023738
  Iteration =      3 Force norm =             0.194935 RMSD =   0.00009530
  Iteration =      4 Force norm =             0.166826 RMSD =   0.00014182
  Iteration =      5 Force norm =             0.150616 RMSD =   0.00018684
  Iteration =      6 Force norm =             0.219423 RMSD =   0.00023339
  Iteration =      7 Force norm =             0.065924 RMSD =   0.00007882
  Iteration =      8 Force norm =             0.065924 RMSD =   0.00000000
  Iteration =      9 Force norm =             0.046533 RMSD =   0.00000740
  Iteration =     10 Force norm =             0.034859 RMSD =   0.00002431
  Iteration =     11 Force norm =             0.025895 RMSD =   0.00002275
  Iteration =     12 Force norm =             0.015048 RMSD =   0.00002891
  Iteration =     13 Force norm =             0.012812 RMSD =   0.00000516
  Iteration =     14 Force norm =             0.012130 RMSD =   0.00000020
  Iteration =     15 Force norm =             0.009743 RMSD =   0.00000069
  Iteration =     16 Force norm =             0.007860 RMSD =   0.00000057
  Iteration =     17 Force norm =             0.006268 RMSD =   0.00000052
  Iteration =     18 Force norm =             0.005505 RMSD =   0.00000029
  Iteration =     19 Force norm =             0.004777 RMSD =   0.00000032
  Iteration =     20 Force norm =             0.004777 RMSD =   0.00000000
  Iteration =     21 Force norm =             0.002307 RMSD =   0.00000068
  Iteration =     22 Force norm =             0.002023 RMSD =   0.00000076
  Iteration =     23 Force norm =             0.002666 RMSD =   0.00000144
  Iteration =     24 Force norm =             0.002619 RMSD =   0.00000280
  Iteration =     25 Force norm =             0.002034 RMSD =   0.00000397
  Iteration =     26 Force norm =             0.001171 RMSD =   0.00000079
  Iteration =     27 Force norm =             0.000303 RMSD =   0.00000028
  Iteration =     28 Force norm =             0.000303 RMSD =   0.00000000
  Iteration =     29 Force norm =             0.000213 RMSD =   0.00000010
  Iteration =     30 Force norm =             0.000151 RMSD =   0.00000004
  Iteration =     31 Force norm =             0.000087 RMSD =   0.00000019

  **** Optimisation achieved ****

  Step:     23 : Elow =  -442.69352 Ehigh =  -442.60906 MaxD =     0.07309

  Iteration =      0 Force norm =             0.000096 RMSD =   0.00000000
  Iteration =      1 Force norm =             0.252539 RMSD =   0.00000000
  Iteration =      2 Force norm =             0.312627 RMSD =   0.00018379
  Iteration =      3 Force norm =             0.172711 RMSD =   0.00010129
  Iteration =      4 Force norm =             0.141184 RMSD =   0.00016977
  Iteration =      5 Force norm =             0.122991 RMSD =   0.00017228
  Iteration =      6 Force norm =             0.106800 RMSD =   0.00009690
  Iteration =      7 Force norm =             0.049024 RMSD =   0.00005810
  Iteration =      8 Force norm =             0.035775 RMSD =   0.00003827
  Iteration =      9 Force norm =             0.037050 RMSD =   0.00004075
  Iteration =     10 Force norm =             0.026296 RMSD =   0.00000349
  Iteration =     11 Force norm =             0.026296 RMSD =   0.00000000
  Iteration =     12 Force norm =             0.012622 RMSD =   0.00000355
  Iteration =     13 Force norm =             0.008443 RMSD =   0.00000402
  Iteration =     14 Force norm =             0.007314 RMSD =   0.00000445
  Iteration =     15 Force norm =             0.002874 RMSD =   0.00000577
  Iteration =     16 Force norm =             0.003466 RMSD =   0.00000260
  Iteration =     17 Force norm =             0.001732 RMSD =   0.00000096
  Iteration =     18 Force norm =             0.001352 RMSD =   0.00000099
  Iteration =     19 Force norm =             0.001122 RMSD =   0.00000189
  Iteration =     20 Force norm =             0.001586 RMSD =   0.00000179
  Iteration =     21 Force norm =             0.000463 RMSD =   0.00000065
  Iteration =     22 Force norm =             0.000463 RMSD =   0.00000000
  Iteration =     23 Force norm =             0.000473 RMSD =   0.00000023
  Iteration =     24 Force norm =             0.000253 RMSD =   0.00000012
  Iteration =     25 Force norm =             0.000080 RMSD =   0.00000022

  **** Optimisation achieved ****

  Step:     24 : Elow =  -442.60906 Ehigh =  -442.54186 MaxD =     0.06626

  Iteration =      0 Force norm =             0.000087 RMSD =   0.00000000
  Iteration =      1 Force norm =             0.213373 RMSD =   0.00000000
  Iteration =      2 Force norm =             0.289542 RMSD =   0.00017019
  Iteration =      3 Force norm =             0.152421 RMSD =   0.00008906
[...]
  Iteration =      1 Force norm =             0.001700 RMSD =   0.00000000
  Iteration =      2 Force norm =             0.001828 RMSD =   0.00000162
  Iteration =      3 Force norm =             0.001507 RMSD =   0.00000414
  Iteration =      4 Force norm =             0.001516 RMSD =   0.00000151
  Iteration =      5 Force norm =             0.001516 RMSD =   0.00000000
  Iteration =      6 Force norm =             0.001014 RMSD =   0.00000013
  Iteration =      7 Force norm =             0.000345 RMSD =   0.00000032
  Iteration =      8 Force norm =             0.000255 RMSD =   0.00000012
  Iteration =      9 Force norm =             0.000136 RMSD =   0.00000026
  Iteration =     10 Force norm =             0.000136 RMSD =   0.00000012
  Iteration =     11 Force norm =             0.000033 RMSD =   0.00000004

  **** Optimisation achieved ****

  Step:     52 : Elow =  -442.15918 Ehigh =  -442.15913 MaxD =     0.00369

  Iteration =      0 Force norm =             0.000044 RMSD =   0.00000000
  Iteration =      1 Force norm =             0.001320 RMSD =   0.00000000
  Iteration =      2 Force norm =             0.001407 RMSD =   0.00000116
  Iteration =      3 Force norm =             0.001061 RMSD =   0.00000319
  Iteration =      4 Force norm =             0.000729 RMSD =   0.00000095
  Iteration =      5 Force norm =             0.000359 RMSD =   0.00000032
  Iteration =      6 Force norm =             0.000214 RMSD =   0.00000026
  Iteration =      7 Force norm =             0.000104 RMSD =   0.00000015
  Iteration =      8 Force norm =             0.000059 RMSD =   0.00000009

  **** Optimisation achieved ****

  Step:     53 : Elow =  -442.15913 Ehigh =  -442.15861 MaxD =     0.00332

  Iteration =      0 Force norm =             0.000033 RMSD =   0.00000000
  Iteration =      1 Force norm =             0.001150 RMSD =   0.00000000
  Iteration =      2 Force norm =             0.001464 RMSD =   0.00000147
  Iteration =      3 Force norm =             0.001137 RMSD =   0.00000260
  Iteration =      4 Force norm =             0.000494 RMSD =   0.00000055
  Iteration =      5 Force norm =             0.000435 RMSD =   0.00000004
  Iteration =      6 Force norm =             0.000134 RMSD =   0.00000032
  Iteration =      7 Force norm =             0.000081 RMSD =   0.00000012

  **** Optimisation achieved ****

  Step:     54 : Elow =  -442.15863 Ehigh =  -442.15861 MaxD =     0.00299

  Iteration =      0 Force norm =             0.000081 RMSD =   0.00000000
  Iteration =      1 Force norm =             0.000350 RMSD =   0.00000000
  Iteration =      2 Force norm =             0.000234 RMSD =   0.00000006
  Iteration =      3 Force norm =             0.000192 RMSD =   0.00000015
  Iteration =      4 Force norm =             0.000148 RMSD =   0.00000017
  Iteration =      5 Force norm =             0.000146 RMSD =   0.00000027
  Iteration =      6 Force norm =             0.000097 RMSD =   0.00000009

  **** Optimisation achieved ****

  Step:     55 : Elow =  -442.15861 Ehigh =  -442.15825 MaxD =     0.00269

  Iteration =      0 Force norm =             0.000059 RMSD =   0.00000000
  Iteration =      1 Force norm =             0.000951 RMSD =   0.00000005
  Iteration =      2 Force norm =             0.000964 RMSD =   0.00000004
  Iteration =      3 Force norm =             0.000952 RMSD =   0.00000002
  Iteration =      4 Force norm =             0.001086 RMSD =   0.00000041
  Iteration =      5 Force norm =             0.001301 RMSD =   0.00000048
  Iteration =      6 Force norm =             0.001443 RMSD =   0.00000108
  Iteration =      7 Force norm =             0.000871 RMSD =   0.00000168
  Iteration =      8 Force norm =             0.000561 RMSD =   0.00000027
  Iteration =      9 Force norm =             0.000168 RMSD =   0.00000011
  Iteration =     10 Force norm =             0.000168 RMSD =   0.00000000
  Iteration =     11 Force norm =             0.000081 RMSD =   0.00000002

  **** Optimisation achieved ****

  Step:     56 : Elow =  -442.15828 Ehigh =  -442.15825 MaxD =     0.00242

  Iteration =      0 Force norm =             0.000081 RMSD =   0.00000000
  Iteration =      1 Force norm =             0.000222 RMSD =   0.00000000
  Iteration =      2 Force norm =             0.000144 RMSD =   0.00000004
  Iteration =      3 Force norm =             0.000137 RMSD =   0.00000009
  Iteration =      4 Force norm =             0.000126 RMSD =   0.00000013
  Iteration =      5 Force norm =             0.000159 RMSD =   0.00000021
  Iteration =      6 Force norm =             0.000124 RMSD =   0.00000013
  Iteration =      7 Force norm =             0.000124 RMSD =   0.00000000
  Iteration =      8 Force norm =             0.000052 RMSD =   0.00000002

  **** Optimisation achieved ****

  Step:     57 : Elow =  -442.15825 Ehigh =  -442.15803 MaxD =     0.00218

  Iteration =      0 Force norm =             0.000097 RMSD =   0.00000000
  Iteration =      1 Force norm =             0.000778 RMSD =   0.00000002
  Iteration =      2 Force norm =             0.000780 RMSD =   0.00000001
  Iteration =      3 Force norm =             0.000789 RMSD =   0.00000003
  Iteration =      4 Force norm =             0.000842 RMSD =   0.00000013
  Iteration =      5 Force norm =             0.000908 RMSD =   0.00000018
  Iteration =      6 Force norm =             0.001025 RMSD =   0.00000037
  Iteration =      7 Force norm =             0.001260 RMSD =   0.00000120
  Iteration =      8 Force norm =             0.000743 RMSD =   0.00000165
  Iteration =      9 Force norm =             0.000185 RMSD =   0.00000034
  Iteration =     10 Force norm =             0.000185 RMSD =   0.00000000
  Iteration =     11 Force norm =             0.000104 RMSD =   0.00000002
  Iteration =     12 Force norm =             0.000068 RMSD =   0.00000004

  **** Optimisation achieved ****

  Step:     58 : Elow =  -442.15804 Ehigh =  -442.15803 MaxD =     0.00196

  Iteration =      0 Force norm =             0.000068 RMSD =   0.00000000
  Iteration =      1 Force norm =             0.000182 RMSD =   0.00000000
  Iteration =      2 Force norm =             0.000127 RMSD =   0.00000004
  Iteration =      3 Force norm =             0.000114 RMSD =   0.00000010
  Iteration =      4 Force norm =             0.000058 RMSD =   0.00000012

  **** Optimisation achieved ****

  Step:     59 : Elow =  -442.15803 Ehigh =  -442.15788 MaxD =     0.00177

  Iteration =      0 Force norm =             0.000052 RMSD =   0.00000000
  Iteration =      1 Force norm =             0.000595 RMSD =   0.00000000
  Iteration =      2 Force norm =             0.000595 RMSD =   0.00000000
  Iteration =      3 Force norm =             0.000803 RMSD =   0.00000137
  Iteration =      4 Force norm =             0.000388 RMSD =   0.00000071
  Iteration =      5 Force norm =             0.000147 RMSD =   0.00000029
  Iteration =      6 Force norm =             0.000095 RMSD =   0.00000009

  **** Optimisation achieved ****

  Step:     60 : Elow =  -442.15789 Ehigh =  -442.15788 MaxD =     0.00159

  Iteration =      0 Force norm =             0.000095 RMSD =   0.00000000
  Iteration =      1 Force norm =             0.000110 RMSD =   0.00000000
  Iteration =      2 Force norm =             0.000068 RMSD =   0.00000002

  **** Optimisation achieved ****

  Step:     61 : Elow =  -442.15788 Ehigh =  -442.15778 MaxD =     0.00143

  Iteration =      0 Force norm =             0.000058 RMSD =   0.00000000
  Iteration =      1 Force norm =             0.000582 RMSD =   0.00000011
  Iteration =      2 Force norm =             0.000582 RMSD =   0.00000000
  Iteration =      3 Force norm =             0.000432 RMSD =   0.00000010
  Iteration =      4 Force norm =             0.000534 RMSD =   0.00000032
  Iteration =      5 Force norm =             0.000635 RMSD =   0.00000060
  Iteration =      6 Force norm =             0.000244 RMSD =   0.00000080
  Iteration =      7 Force norm =             0.000155 RMSD =   0.00000015
  Iteration =      8 Force norm =             0.000155 RMSD =   0.00000000
  Iteration =      9 Force norm =             0.000091 RMSD =   0.00000002

  **** Optimisation achieved ****

  Step:     62 : Elow =  -442.15778 Ehigh =  -442.15778 MaxD =     0.00129

  Iteration =      0 Force norm =             0.000091 RMSD =   0.00000000
  Iteration =      1 Force norm =             0.000090 RMSD =   0.00000000

  **** Optimisation achieved ****

  Step:     63 : Elow =  -442.15778 Ehigh =  -442.15771 MaxD =     0.00116

  Iteration =      0 Force norm =             0.000068 RMSD =   0.00000000
  Iteration =      1 Force norm =             0.000623 RMSD =   0.00000060
  Iteration =      2 Force norm =             0.000623 RMSD =   0.00000000
  Iteration =      3 Force norm =             0.000422 RMSD =   0.00000009
  Iteration =      4 Force norm =             0.000248 RMSD =   0.00000026
  Iteration =      5 Force norm =             0.000268 RMSD =   0.00000017
  Iteration =      6 Force norm =             0.000204 RMSD =   0.00000049
  Iteration =      7 Force norm =             0.000188 RMSD =   0.00000007
  Iteration =      8 Force norm =             0.000055 RMSD =   0.00000013

  **** Optimisation achieved ****

  Step:     64 : Elow =  -442.15772 Ehigh =  -442.15771 MaxD =     0.00104

  Iteration =      0 Force norm =             0.000055 RMSD =   0.00000000
  Iteration =      1 Force norm =             0.000063 RMSD =   0.00000000

  **** Optimisation achieved ****

  Step:     65 : Elow =  -442.15771 Ehigh =  -442.15767 MaxD =     0.00094

  Iteration =      0 Force norm =             0.000090 RMSD =   0.00000000
  Iteration =      1 Force norm =             0.000307 RMSD =   0.00000000
  Iteration =      2 Force norm =             0.000350 RMSD =   0.00000026
  Iteration =      3 Force norm =             0.000240 RMSD =   0.00000073
  Iteration =      4 Force norm =             0.000212 RMSD =   0.00000019
  Iteration =      5 Force norm =             0.000067 RMSD =   0.00000020

  **** Optimisation achieved ****

  Step:     66 : Elow =  -442.15767 Ehigh =  -442.15764 MaxD =     0.00075

  Iteration =      0 Force norm =             0.000063 RMSD =   0.00000000
  Iteration =      1 Force norm =             0.000274 RMSD =   0.00000000
  Iteration =      2 Force norm =             0.000348 RMSD =   0.00000052
  Iteration =      3 Force norm =             0.000639 RMSD =   0.00000090
  Iteration =      4 Force norm =             0.000086 RMSD =   0.00000026

  **** Optimisation achieved ****

  Step:     67 : Elow =  -442.15764 Ehigh =  -442.15763 MaxD =     0.00060

  Iteration =      0 Force norm =             0.000067 RMSD =   0.00000000
  Iteration =      1 Force norm =             0.000203 RMSD =   0.00000000
  Iteration =      2 Force norm =             0.000265 RMSD =   0.00000028
  Iteration =      3 Force norm =             0.000172 RMSD =   0.00000063
  Iteration =      4 Force norm =             0.000057 RMSD =   0.00000007

  **** Optimisation achieved ****

  Step:     68 : Elow =  -442.15763 Ehigh =  -442.15761 MaxD =     0.00048

  Iteration =      0 Force norm =             0.000086 RMSD =   0.00000000
  Iteration =      1 Force norm =             0.000175 RMSD =   0.00000000
  Iteration =      2 Force norm =             0.000196 RMSD =   0.00000017
  Iteration =      3 Force norm =             0.000135 RMSD =   0.00000044
  Iteration =      4 Force norm =             0.000092 RMSD =   0.00000010

  **** Optimisation achieved ****

  Step:     69 : Elow =  -442.15761 Ehigh =  -442.15761 MaxD =     0.00038

  Iteration =      0 Force norm =             0.000057 RMSD =   0.00000000
  Iteration =      1 Force norm =             0.000117 RMSD =   0.00000000
  Iteration =      2 Force norm =             0.000122 RMSD =   0.00000011
  Iteration =      3 Force norm =             0.000100 RMSD =   0.00000029

  **** Optimisation achieved ****

  Step:     70 : Elow =  -442.15761 Ehigh =  -442.15760 MaxD =     0.00031

  Iteration =      0 Force norm =             0.000092 RMSD =   0.00000000
  Iteration =      1 Force norm =             0.000114 RMSD =   0.00000000
  Iteration =      2 Force norm =             0.000086 RMSD =   0.00000002

  **** Optimisation achieved ****

  Step:     71 : Elow =  -442.15760 Ehigh =  -442.15760 MaxD =     0.00025

  Iteration =      0 Force norm =             0.000100 RMSD =   0.00000000
  Iteration =      1 Force norm =             0.000091 RMSD =   0.00000000

  **** Optimisation achieved ****

  Step:     72 : Elow =  -442.15760 Ehigh =  -442.15760 MaxD =     0.00020

  Iteration =      0 Force norm =             0.000086 RMSD =   0.00000000
  Iteration =      1 Force norm =             0.000082 RMSD =   0.00000000

  **** Optimisation achieved ****

  Step:     73 : Elow =  -442.15760 Ehigh =  -442.15760 MaxD =     0.00016

  Iteration =      0 Force norm =             0.000091 RMSD =   0.00000000
  Iteration =      1 Force norm =             0.000086 RMSD =   0.00000000

  **** Optimisation achieved ****

  Step:     74 : Elow =  -442.15760 Ehigh =  -442.15759 MaxD =     0.00013

  Iteration =      0 Force norm =             0.000082 RMSD =   0.00000000
  Iteration =      1 Force norm =             0.000054 RMSD =   0.00000008

  **** Optimisation achieved ****

  Step:     75 : Elow =  -442.15759 Ehigh =  -442.15759 MaxD =     0.00010

  Iteration =      0 Force norm =             0.000054 RMSD =   0.00000000
  Iteration =      1 Force norm =             0.000054 RMSD =   0.00000000

  **** Optimisation achieved ****


--------------------------------------------------------------------------------
  Energy of configurations :
--------------------------------------------------------------------------------
  Bound 1                      -442.15759395 eV
  Bound 2                      -442.15759322 eV
--------------------------------------------------------------------------------

--------------------------------------------------------------------------------
                      Coordinates                        Gradients
********************************************************************************
 Bound number =    1
********************************************************************************
 Cell :    5.94411    5.94411  90.0000
      :    0.00000    0.00000   0.0000
--------------------------------------------------------------------------------
 Coordinates : 
--------------------------------------------------------------------------------
     1     0.000000     0.000000     0.000000    0.00000   0.00000   0.00000
     2     0.201200     0.201100     0.000000   -0.00070  -0.00075   0.00000
     3     0.510525     0.088398     0.000000    0.00054  -0.00050   0.00000
     4     0.744325     0.062512     0.000000   -0.00002  -0.00001   0.00000
     5     0.544034     0.325290     0.000000    0.00004  -0.00022   0.00000
     6     0.088387     0.510560     0.000000   -0.00043   0.00042   0.00000
     7     0.325273     0.544023     0.000000   -0.00009  -0.00000   0.00000
     8     0.062509     0.744339     0.000000   -0.00007   0.00021   0.00000
     9     0.572836     0.572839     0.000000   -0.00030  -0.00017   0.00000
    10     0.829784     0.516833     0.000000   -0.00003  -0.00065   0.00000
    11     0.516831     0.829771     0.000000   -0.00061   0.00002   0.00000
********************************************************************************
 Bound number =    2
********************************************************************************
 Cell :    5.94411    5.94411  90.0000
      :    0.00000    0.00000   0.0000
--------------------------------------------------------------------------------
 Coordinates : 
--------------------------------------------------------------------------------
     1     0.000000     0.000000     0.000000    0.00000   0.00000   0.00000
     2     0.201120     0.201180     0.000000   -0.00030  -0.00029   0.00000
     3     0.510553     0.088389     0.000000   -0.00004  -0.00018   0.00000
     4     0.744336     0.062510     0.000000   -0.00008  -0.00026   0.00000
     5     0.544025     0.325276     0.000000   -0.00011  -0.00032   0.00000
     6     0.088396     0.510532     0.000000   -0.00019  -0.00003   0.00000
     7     0.325287     0.544031     0.000000   -0.00032  -0.00011   0.00000
     8     0.062512     0.744328     0.000000   -0.00026  -0.00010   0.00000
     9     0.572839     0.572836     0.000000   -0.00040  -0.00041   0.00000
    10     0.829774     0.516831     0.000000   -0.00025  -0.00021   0.00000
    11     0.516833     0.829782     0.000000   -0.00020  -0.00026   0.00000
--------------------------------------------------------------------------------

  Replica coordinates in GULP input format : 

#-------------------------------------------------------------------------------
#  Bound number =    1
#-------------------------------------------------------------------------------
scell
   5.94411    5.94411  90.0000
sfractional
Al    core     0.000000     0.000000     0.000000   2.00000 1.0000 0.000000
O     core     0.201200     0.201100     0.000000  -2.00000 1.0000 0.000000
Mg    core     0.510525     0.088398     0.000000   4.00000 1.0000 0.000000
O     core     0.744325     0.062512     0.000000  -2.00000 1.0000 0.000000
O     core     0.544034     0.325290     0.000000  -2.00000 1.0000 0.000000
Mg    core     0.088387     0.510560     0.000000   4.00000 1.0000 0.000000
O     core     0.325273     0.544023     0.000000  -2.00000 1.0000 0.000000
O     core     0.062509     0.744339     0.000000  -2.00000 1.0000 0.000000
Mg    core     0.572836     0.572839     0.000000   4.00000 1.0000 0.000000
O     core     0.829784     0.516833     0.000000  -2.00000 1.0000 0.000000
O     core     0.516831     0.829771     0.000000  -2.00000 1.0000 0.000000
#-------------------------------------------------------------------------------
#  Bound number =    2
#-------------------------------------------------------------------------------
scell
   5.94411    5.94411  90.0000
sfractional
Al    core     0.000000     0.000000     0.000000   2.00000 1.0000 0.000000
O     core     0.201120     0.201180     0.000000  -2.00000 1.0000 0.000000
Mg    core     0.510553     0.088389     0.000000   4.00000 1.0000 0.000000
O     core     0.744336     0.062510     0.000000  -2.00000 1.0000 0.000000
O     core     0.544025     0.325276     0.000000  -2.00000 1.0000 0.000000
Mg    core     0.088396     0.510532     0.000000   4.00000 1.0000 0.000000
O     core     0.325287     0.544031     0.000000  -2.00000 1.0000 0.000000
O     core     0.062512     0.744328     0.000000  -2.00000 1.0000 0.000000
Mg    core     0.572839     0.572836     0.000000   4.00000 1.0000 0.000000
O     core     0.829774     0.516831     0.000000  -2.00000 1.0000 0.000000
O     core     0.516833     0.829782     0.000000  -2.00000 1.0000 0.000000
#-------------------------------------------------------------------------------


  Peak dynamic memory used =       1.82 MB 


  Timing analysis for GULP :

--------------------------------------------------------------------------------
  Task / Subroutine                                          Time (Seconds)
--------------------------------------------------------------------------------
  Calculation of reciprocal space energy and derivatives          0.3760
  Calculation of real space energy and derivatives                0.6661
  Global summation overhead                                       0.0019
--------------------------------------------------------------------------------
  Total CPU time                                                  1.0602
--------------------------------------------------------------------------------


  Dump file written as example79.res


  Job Finished at 10:13.40 23rd August     2023                               

