********************************************************************************
*                       GENERAL UTILITY LATTICE PROGRAM                        *
*                                 Julian Gale                                  *
*                       Curtin Institute for Computation                       *
*                    School of Molecular and Life Sciences                     *
*                    Curtin University, Western Australia                      *
********************************************************************************
* Version = 6.2.0 * Last modified =  22nd August 2023                          *
********************************************************************************
*  single       - perform a single point run                                   *
*  eht          - use Extended Huckel Theory to compute charges                *
*  molecule     - molecule option activated, Coulomb subtract within molecule  *
********************************************************************************
* This example of using AA-CLP is based on the CLP example 1_sample            *
* from the original code of Gavezzotti                                         *
********************************************************************************


  Job Started  at 10:13.43 23rd August     2023                               

  Number of CPUs =     1


  Total number of configurations input =      1

********************************************************************************
*  Input for Configuration =   1                                               *
********************************************************************************

  Formula = C36O16H32                                                   

  Number of irreducible atoms/shells =      21


  Total number atoms/shells =      84

  Dimensionality = 3               :  Bulk   


  Symmetry :

  Crystal family                   :  Monoclinic  
  Crystal class  (Groth - 1921)    :  Monoclinic Prismatic                 

  Space group (centrosymmetric)    :  P 21/C          

  Patterson group                  :  P 2/m    

  Cartesian lattice vectors (Angstroms) :

       11.430000    0.000000    0.000000
        0.000000    6.591000    0.000000
       -1.127791    0.000000   11.339053

  Cell parameters (Angstroms/Degrees):

  a =      11.4300    alpha =  90.0000
  b =       6.5910    beta  =  95.6800
  c =      11.3950    gamma =  90.0000

  Initial cell volume =         854.229000 Angs**3

  Temperature of configuration =   0.00     K 

  Pressure of configuration =         0.000 GPa 

  Fractional coordinates of asymmetric unit :

--------------------------------------------------------------------------------
   No.  Atomic       x           y          z         Charge      Occupancy
        Label      (Frac)      (Frac)     (Frac)        (e)         (Frac)  
--------------------------------------------------------------------------------
      1 C3    c    0.153400    0.564000    0.067400    -0.02180    1.000000    
      2 C3    c    0.246200    0.487700    0.009500     0.23595    1.000000    
      3 C3    c    0.298300    0.304700    0.041600    -0.14099    1.000000    
      4 C3    c    0.260400    0.196100    0.133800    -0.09497    1.000000    
      5 C3    c    0.169600    0.267600    0.193100    -0.13253    1.000000    
      6 C3    c    0.116500    0.449600    0.159800    -0.09789    1.000000    
      7 C1    c    0.090300    0.757300    0.037600     0.54637    1.000000    
      8 C1    c    0.365900    0.738400    0.936300     0.54945    1.000000    
      9 C4    c    0.397400    0.837800    0.827200    -0.36322    1.000000    
     10 O4    c    0.120300    0.860300    0.949200    -0.37231    1.000000    
     11 O3    c    0.010400    0.811800    0.096500    -0.49616    1.000000    
     12 O1    c    0.285700    0.587800    0.912000    -0.30854    1.000000    
     13 O3    c    0.403600    0.780100    0.034500    -0.46379    1.000000    
     14 H2    c    0.368680    0.246700    0.994520     0.12174    1.000000    
     15 H2    c    0.302170    0.053870    0.159790     0.11658    1.000000    
     16 H2    c    0.140050    0.181750    0.265310     0.11777    1.000000    
     17 H2    c    0.044920    0.504460    0.206280     0.11715    1.000000    
     18 H3    c    0.318970    0.897230    0.778510     0.14257    1.000000    
     19 H3    c    0.458150    0.960370    0.849960     0.12664    1.000000    
     20 H3    c    0.438050    0.728300    0.773570     0.14417    1.000000    
     21 H5    c    0.073160    0.987760    0.937260     0.27380    1.000000    
--------------------------------------------------------------------------------



  Molecule list generated from bond lengths :

  Total number of molecules =     4

--------------------------------------------------------------------------------
Molecule No./:  Atoms
Periodicity  :  
--------------------------------------------------------------------------------
     1  0    : C3   c     1 C3   c     5 C3   c     9 C3   c    13 C3   c    17
             : C3   c    21 C1   c    25 C1   c    29 C4   c    33 O4   c    37
             : O3   c    41 O1   c    45 O3   c    49 H2   c    53 H2   c    57
             : H2   c    61 H2   c    65 H3   c    69 H3   c    73 H3   c    77
             : H5   c    81
     2  0    : C3   c     2 C3   c     6 C3   c    10 C3   c    14 C3   c    18
             : C3   c    22 C1   c    26 C1   c    30 C4   c    34 O4   c    38
             : O3   c    42 O1   c    46 O3   c    50 H2   c    54 H2   c    58
             : H2   c    62 H2   c    66 H3   c    70 H3   c    74 H3   c    78
             : H5   c    82
     3  0    : C3   c     3 C3   c     7 C3   c    11 C3   c    15 C3   c    19
             : C3   c    23 C1   c    27 C1   c    31 C4   c    35 O4   c    39
             : O3   c    43 O1   c    47 O3   c    51 H2   c    55 H2   c    59
             : H2   c    63 H2   c    67 H3   c    71 H3   c    75 H3   c    79
             : H5   c    83
     4  0    : C3   c     4 C3   c     8 C3   c    12 C3   c    16 C3   c    20
             : C3   c    24 C1   c    28 C1   c    32 C4   c    36 O4   c    40
             : O3   c    44 O1   c    48 O3   c    52 H2   c    56 H2   c    60
             : H2   c    64 H2   c    68 H3   c    72 H3   c    76 H3   c    80
             : H5   c    84
--------------------------------------------------------------------------------


********************************************************************************
*  General input information                                                   *
********************************************************************************

  Species output for all configurations : 

--------------------------------------------------------------------------------
  Species    Type    Atomic    Atomic    Charge       Radii (Angs)     Library
                     Number     Mass       (e)     Cova   Ionic  VDW   Symbol
--------------------------------------------------------------------------------
    C3       Core        6      12.01   0.000000   0.770  0.000  1.530          
    C1       Core        6      12.01   0.000000   0.770  0.000  1.530          
    C4       Core        6      12.01   0.000000   0.770  0.000  1.530          
    O4       Core        8      16.00   0.000000   0.730  0.000  1.360          
    O3       Core        8      16.00   0.000000   0.730  0.000  1.360          
    O1       Core        8      16.00   0.000000   0.730  0.000  1.360          
    H2       Core        1       1.01   0.000000   0.370  0.000  1.080          
    H3       Core        1       1.01   0.000000   0.370  0.000  1.080          
    H5       Core        1       1.01   0.000000   0.370  0.000  1.080          
--------------------------------------------------------------------------------


  Lattice summation method               =    Ewald          (3-D)
                                         =    Parry          (2-D)
                                         =    Saunders et al (1-D)
  Accuracy factor for lattice sums       =   12.000


  Analytic derivatives to be used

  Time limit = Infinity

  Maximum range for interatomic potentials =    100000.000000 Angstroms

  AA-CLP charge scale factor =       0.4100
  AA-CLP D      scale factor =     650.0000
  AA-CLP P      scale factor =     235.0000
  AA-CLP R      scale factor =   77000.0000


  AA-CLP species parameters:

--------------------------------------------------------------------------------
  Atom Type    Polarisability (Ang^3)  IP (eV)        B          H  
--------------------------------------------------------------------------------
  C3    c          1.35000             0.41400     1.0000     0.0000
  C1    c          1.05000             0.41400     1.0000     0.0000
  C4    c          1.05000             0.41400     1.0000     0.0000
  O4    c          0.75000             0.50000     0.5000    -0.9000
  O3    c          0.75000             0.50000     0.5000    -0.9900
  O1    c          0.75000             0.50000     0.4500    -0.9000
  H2    c          0.39000             0.50000     0.6200     0.1000
  H3    c          0.39000             0.50000     0.6400     0.0500
  H5    c          0.39000             0.50000     0.8000     0.9900
--------------------------------------------------------------------------------

  Intermolecular potentials :

--------------------------------------------------------------------------------
Atom  Types   Potential      Parameter       Value         Units   Cutoffs(Ang)
  1     2                                                            Min /  Max 
--------------------------------------------------------------------------------
X    c X    c AA-CLP two                                            0.000 40.000
--------------------------------------------------------------------------------

********************************************************************************
*  Output for configuration   1                                                *
********************************************************************************


--------------------------------------------------------------------------------
  EHT K point :    1  0.50000  0.25000  0.50000   weight =  0.50000
--------------------------------------------------------------------------------


  Extended Huckel Theory Orbital Eigenvalues (eV): 

      1    -35.749429
      2    -35.749429
      3    -35.716569
      4    -35.716569
      5    -35.407116
      6    -35.407116
      7    -35.193569
      8    -35.193569
      9    -32.957900
     10    -32.957900
     11    -32.949030
     12    -32.949030
     13    -32.463985
     14    -32.463985
     15    -32.146291
     16    -32.146291
     17    -29.249053
     18    -29.249053
     19    -29.233525
     20    -29.233525
     21    -25.485553
     22    -25.485553
     23    -25.414251
     24    -25.414251
     25    -24.910374
     26    -24.910374
     27    -24.885861
     28    -24.885861
     29    -23.595225
     30    -23.595225
     31    -23.541393
     32    -23.541393
     33    -19.901271
     34    -19.901271
     35    -19.710502
     36    -19.710502
     37    -18.725256
     38    -18.725256
     39    -18.697221
     40    -18.697221
     41    -17.746521
     42    -17.746521
     43    -17.544418
     44    -17.544418
     45    -17.307974
     46    -17.307974
     47    -17.270403
     48    -17.270403
     49    -16.203558
     50    -16.203558
     51    -15.955366
     52    -15.955366
     53    -15.923268
     54    -15.923268
     55    -15.911220
     56    -15.911220
     57    -15.862056
     58    -15.862056
     59    -15.823532
     60    -15.823532
     61    -15.800722
     62    -15.800722
     63    -15.767480
     64    -15.767480
     65    -15.724143
     66    -15.724143
     67    -15.700832
     68    -15.700832
     69    -15.664816
     70    -15.664816
     71    -15.433311
     72    -15.433311
     73    -14.948530
     74    -14.948530
     75    -14.926688
     76    -14.926688
     77    -14.820256
     78    -14.820256
     79    -14.786935
     80    -14.786935
     81    -14.735626
     82    -14.735626
     83    -14.724378
     84    -14.724378
     85    -14.696118
     86    -14.696118
     87    -14.611418
     88    -14.611418
     89    -14.468824
     90    -14.468824
     91    -14.388921
     92    -14.388921
     93    -14.379601
     94    -14.379601
     95    -14.374040
     96    -14.374040
     97    -14.062116
     98    -14.062116
     99    -13.992834
    100    -13.992834
    101    -13.906787
    102    -13.906787
    103    -13.889538
    104    -13.889538
    105    -13.552388
    106    -13.552388
    107    -13.540805
    108    -13.540805
    109    -13.489179
    110    -13.489179
    111    -13.446796
    112    -13.446796
    113    -13.424615
    114    -13.424615
    115    -13.375978
    116    -13.375978
    117    -13.325995
    118    -13.325995
    119    -13.303452
    120    -13.303452
    121    -12.920266
    122    -12.920266
    123    -12.817174
    124    -12.817174
    125    -12.626602
    126    -12.626602
    127    -12.605193
    128    -12.605193
    129    -12.544097
    130    -12.544097
    131    -12.517361
    132    -12.517361
    133    -12.183304
    134    -12.183304
    135    -12.153681
    136    -12.153681
    137     -9.483045
    138     -9.483045
    139     -9.362599
    140     -9.362599
    141     -8.347637
    142     -8.347637
    143     -8.322176
    144     -8.322176
    145     -7.989460
    146     -7.989460
    147     -7.969830
    148     -7.969830
    149     -6.984905
    150     -6.984905
    151     -6.970080
    152     -6.970080
    153     -3.934455
    154     -3.934455
    155     -3.897378
    156     -3.897378
    157      0.301147
    158      0.301147
    159      0.339668
    160      0.339668
    161      1.844681
    162      1.844681
    163      2.716854
    164      2.716854
    165      3.758285
    166      3.758285
    167      3.952289
    168      3.952289
    169      4.173185
    170      4.173185
    171      4.548341
    172      4.548341
    173      5.170798
    174      5.170798
    175      5.295690
    176      5.295690
    177      5.848945
    178      5.848945
    179      6.013284
    180      6.013284
    181      7.927802
    182      7.927802
    183      8.175606
    184      8.175606
    185      9.514682
    186      9.514682
    187      9.725248
    188      9.725248
    189     11.071703
    190     11.071703
    191     11.224869
    192     11.224869
    193     12.833201
    194     12.833201
    195     12.970205
    196     12.970205
    197     14.764219
    198     14.764219
    199     15.028356
    200     15.028356
    201     15.701382
    202     15.701382
    203     15.740478
    204     15.740478
    205     19.539653
    206     19.539653
    207     20.216211
    208     20.216211
    209     24.561073
    210     24.561073
    211     24.681898
    212     24.681898
    213     29.183564
    214     29.183564
    215     29.431022
    216     29.431022
    217     31.000747
    218     31.000747
    219     31.158097
    220     31.158097
    221     32.227667
    222     32.227667
    223     32.473877
    224     32.473877
    225     40.043784
    226     40.043784
    227     40.877827
    228     40.877827
    229     45.693320
    230     45.693320
    231     45.803810
    232     45.803810
    233     47.790884
    234     47.790884
    235     47.876405
    236     47.876405
    237     68.848494
    238     68.848494
    239     68.896312
    240     68.896312

--------------------------------------------------------------------------------
  EHT K point :    2  0.50000  0.75000  0.50000   weight =  0.50000
--------------------------------------------------------------------------------


  Extended Huckel Theory Orbital Eigenvalues (eV): 

      1    -35.749429
      2    -35.749429
      3    -35.716569
      4    -35.716569
      5    -35.407116
      6    -35.407116
      7    -35.193569
      8    -35.193569
      9    -32.957900
     10    -32.957900
     11    -32.949030
     12    -32.949030
     13    -32.463985
     14    -32.463985
     15    -32.146291
     16    -32.146291
     17    -29.249053
     18    -29.249053
     19    -29.233525
     20    -29.233525
     21    -25.485553
     22    -25.485553
     23    -25.414251
     24    -25.414251
     25    -24.910374
     26    -24.910374
     27    -24.885861
     28    -24.885861
     29    -23.595225
     30    -23.595225
     31    -23.541393
     32    -23.541393
     33    -19.901271
     34    -19.901271
     35    -19.710502
     36    -19.710502
     37    -18.725256
     38    -18.725256
     39    -18.697221
     40    -18.697221
     41    -17.746521
     42    -17.746521
     43    -17.544418
     44    -17.544418
     45    -17.307974
     46    -17.307974
     47    -17.270403
     48    -17.270403
     49    -16.203558
     50    -16.203558
     51    -15.955366
     52    -15.955366
     53    -15.923268
     54    -15.923268
     55    -15.911220
     56    -15.911220
     57    -15.862056
     58    -15.862056
     59    -15.823532
     60    -15.823532
     61    -15.800722
     62    -15.800722
     63    -15.767480
     64    -15.767480
     65    -15.724143
     66    -15.724143
     67    -15.700832
     68    -15.700832
     69    -15.664816
     70    -15.664816
     71    -15.433311
     72    -15.433311
     73    -14.948530
     74    -14.948530
     75    -14.926688
     76    -14.926688
     77    -14.820256
     78    -14.820256
     79    -14.786935
     80    -14.786935
     81    -14.735626
     82    -14.735626
     83    -14.724378
     84    -14.724378
     85    -14.696118
     86    -14.696118
     87    -14.611418
     88    -14.611418
     89    -14.468824
     90    -14.468824
     91    -14.388921
     92    -14.388921
     93    -14.379601
     94    -14.379601
     95    -14.374040
     96    -14.374040
     97    -14.062116
     98    -14.062116
     99    -13.992834
    100    -13.992834
    101    -13.906787
    102    -13.906787
    103    -13.889538
    104    -13.889538
    105    -13.552388
    106    -13.552388
    107    -13.540805
    108    -13.540805
    109    -13.489179
    110    -13.489179
    111    -13.446796
    112    -13.446796
    113    -13.424615
    114    -13.424615
    115    -13.375978
    116    -13.375978
    117    -13.325995
    118    -13.325995
    119    -13.303452
    120    -13.303452
    121    -12.920266
    122    -12.920266
    123    -12.817174
    124    -12.817174
    125    -12.626602
    126    -12.626602
    127    -12.605193
    128    -12.605193
    129    -12.544097
    130    -12.544097
    131    -12.517361
    132    -12.517361
    133    -12.183304
    134    -12.183304
    135    -12.153681
    136    -12.153681
    137     -9.483045
    138     -9.483045
    139     -9.362599
    140     -9.362599
    141     -8.347637
    142     -8.347637
    143     -8.322176
    144     -8.322176
    145     -7.989460
    146     -7.989460
    147     -7.969830
    148     -7.969830
    149     -6.984905
    150     -6.984905
    151     -6.970080
    152     -6.970080
    153     -3.934455
    154     -3.934455
    155     -3.897378
    156     -3.897378
    157      0.301147
    158      0.301147
    159      0.339668
    160      0.339668
    161      1.844681
    162      1.844681
    163      2.716854
    164      2.716854
    165      3.758285
    166      3.758285
    167      3.952289
    168      3.952289
    169      4.173185
    170      4.173185
    171      4.548341
    172      4.548341
    173      5.170798
    174      5.170798
    175      5.295690
    176      5.295690
    177      5.848945
    178      5.848945
    179      6.013284
    180      6.013284
    181      7.927802
    182      7.927802
    183      8.175606
    184      8.175606
    185      9.514682
    186      9.514682
    187      9.725248
    188      9.725248
    189     11.071703
    190     11.071703
    191     11.224869
    192     11.224869
    193     12.833201
    194     12.833201
    195     12.970205
    196     12.970205
    197     14.764219
    198     14.764219
    199     15.028356
    200     15.028356
    201     15.701382
    202     15.701382
    203     15.740478
    204     15.740478
    205     19.539653
    206     19.539653
    207     20.216211
    208     20.216211
    209     24.561073
    210     24.561073
    211     24.681898
    212     24.681898
    213     29.183564
    214     29.183564
    215     29.431022
    216     29.431022
    217     31.000747
    218     31.000747
    219     31.158097
    220     31.158097
    221     32.227667
    222     32.227667
    223     32.473877
    224     32.473877
    225     40.043784
    226     40.043784
    227     40.877827
    228     40.877827
    229     45.693320
    230     45.693320
    231     45.803810
    232     45.803810
    233     47.790884
    234     47.790884
    235     47.876405
    236     47.876405
    237     68.848494
    238     68.848494
    239     68.896312
    240     68.896312


  Final Mulliken charges from Extended Huckel Theory :

--------------------------------------------------------------------------------
    Atom no.            Atomic No.             Charge
--------------------------------------------------------------------------------
         1                   6                -0.0528070
         2                   6                 0.5747429
         3                   6                -0.3452884
         4                   6                -0.2329954
         5                   6                -0.3246666
         6                   6                -0.2386010
         7                   6                 1.3312861
         8                   6                 1.3394300
         9                   6                -0.8918530
        10                   8                -0.9423032
        11                   8                -1.1757310
        12                   8                -0.7527625
        13                   8                -1.1305302
        14                   1                 0.2984249
        15                   1                 0.2857930
        16                   1                 0.2891102
        17                   1                 0.2869100
        18                   1                 0.3507335
        19                   1                 0.3104655
        20                   1                 0.3527771
        21                   1                 0.6678653
--------------------------------------------------------------------------------
  Extended Huckel Theory Energy = -5020.449962 eV
--------------------------------------------------------------------------------

  Components of energy : 

--------------------------------------------------------------------------------
  Interatomic potentials     =          -3.50975647 eV    
  Monopole - monopole (real) =          13.43803645 eV    
  Monopole - monopole (recip)=         -15.16447101 eV    
  Monopole - monopole (total)=          -1.72643457 eV    
--------------------------------------------------------------------------------
  Total lattice energy       =          -5.23619104 eV    
--------------------------------------------------------------------------------
  Total lattice energy       =            -505.2124 kJ/(mole unit cells)
--------------------------------------------------------------------------------

--------------------------------------------------------------------------------
  EHT K point :    1  0.50000  0.25000  0.50000   weight =  0.50000
--------------------------------------------------------------------------------


  Extended Huckel Theory Orbital Eigenvalues (eV): 

      1    -35.749429
      2    -35.749429
      3    -35.716569
      4    -35.716569
      5    -35.407116
      6    -35.407116
      7    -35.193569
      8    -35.193569
      9    -32.957900
     10    -32.957900
     11    -32.949030
     12    -32.949030
     13    -32.463985
     14    -32.463985
     15    -32.146291
     16    -32.146291
     17    -29.249053
     18    -29.249053
     19    -29.233525
     20    -29.233525
     21    -25.485553
     22    -25.485553
     23    -25.414251
     24    -25.414251
     25    -24.910374
     26    -24.910374
     27    -24.885861
     28    -24.885861
     29    -23.595225
     30    -23.595225
     31    -23.541393
     32    -23.541393
     33    -19.901271
     34    -19.901271
     35    -19.710502
     36    -19.710502
     37    -18.725256
     38    -18.725256
     39    -18.697221
     40    -18.697221
     41    -17.746521
     42    -17.746521
     43    -17.544418
     44    -17.544418
     45    -17.307974
     46    -17.307974
     47    -17.270403
     48    -17.270403
     49    -16.203558
     50    -16.203558
     51    -15.955366
     52    -15.955366
     53    -15.923268
     54    -15.923268
     55    -15.911220
     56    -15.911220
     57    -15.862056
     58    -15.862056
     59    -15.823532
     60    -15.823532
     61    -15.800722
     62    -15.800722
     63    -15.767480
     64    -15.767480
     65    -15.724143
     66    -15.724143
     67    -15.700832
     68    -15.700832
     69    -15.664816
     70    -15.664816
     71    -15.433311
     72    -15.433311
     73    -14.948530
     74    -14.948530
     75    -14.926688
     76    -14.926688
     77    -14.820256
     78    -14.820256
     79    -14.786935
     80    -14.786935
     81    -14.735626
     82    -14.735626
     83    -14.724378
     84    -14.724378
     85    -14.696118
     86    -14.696118
     87    -14.611418
     88    -14.611418
     89    -14.468824
     90    -14.468824
     91    -14.388921
     92    -14.388921
     93    -14.379601
     94    -14.379601
     95    -14.374040
     96    -14.374040
     97    -14.062116
     98    -14.062116
     99    -13.992834
    100    -13.992834
    101    -13.906787
    102    -13.906787
    103    -13.889538
    104    -13.889538
    105    -13.552388
    106    -13.552388
    107    -13.540805
    108    -13.540805
    109    -13.489179
    110    -13.489179
    111    -13.446796
    112    -13.446796
    113    -13.424615
    114    -13.424615
    115    -13.375978
    116    -13.375978
    117    -13.325995
    118    -13.325995
    119    -13.303452
    120    -13.303452
    121    -12.920266
    122    -12.920266
    123    -12.817174
    124    -12.817174
    125    -12.626602
    126    -12.626602
    127    -12.605193
    128    -12.605193
    129    -12.544097
    130    -12.544097
    131    -12.517361
    132    -12.517361
    133    -12.183304
    134    -12.183304
    135    -12.153681
    136    -12.153681
    137     -9.483045
    138     -9.483045
    139     -9.362599
    140     -9.362599
    141     -8.347637
    142     -8.347637
    143     -8.322176
    144     -8.322176
    145     -7.989460
    146     -7.989460
    147     -7.969830
    148     -7.969830
    149     -6.984905
    150     -6.984905
    151     -6.970080
    152     -6.970080
    153     -3.934455
    154     -3.934455
    155     -3.897378
    156     -3.897378
    157      0.301147
    158      0.301147
    159      0.339668
    160      0.339668
    161      1.844681
    162      1.844681
    163      2.716854
    164      2.716854
    165      3.758285
    166      3.758285
    167      3.952289
    168      3.952289
    169      4.173185
    170      4.173185
    171      4.548341
    172      4.548341
    173      5.170798
    174      5.170798
    175      5.295690
    176      5.295690
    177      5.848945
    178      5.848945
    179      6.013284
    180      6.013284
    181      7.927802
    182      7.927802
    183      8.175606
    184      8.175606
    185      9.514682
    186      9.514682
    187      9.725248
    188      9.725248
    189     11.071703
    190     11.071703
    191     11.224869
    192     11.224869
    193     12.833201
    194     12.833201
    195     12.970205
    196     12.970205
    197     14.764219
    198     14.764219
    199     15.028356
    200     15.028356
    201     15.701382
    202     15.701382
    203     15.740478
    204     15.740478
    205     19.539653
    206     19.539653
    207     20.216211
    208     20.216211
    209     24.561073
    210     24.561073
    211     24.681898
    212     24.681898
    213     29.183564
    214     29.183564
    215     29.431022
    216     29.431022
    217     31.000747
    218     31.000747
    219     31.158097
    220     31.158097
    221     32.227667
    222     32.227667
    223     32.473877
    224     32.473877
    225     40.043784
    226     40.043784
    227     40.877827
    228     40.877827
    229     45.693320
    230     45.693320
    231     45.803810
    232     45.803810
    233     47.790884
    234     47.790884
    235     47.876405
    236     47.876405
    237     68.848494
    238     68.848494
    239     68.896312
    240     68.896312

--------------------------------------------------------------------------------
  EHT K point :    2  0.50000  0.75000  0.50000   weight =  0.50000
--------------------------------------------------------------------------------


  Extended Huckel Theory Orbital Eigenvalues (eV): 

      1    -35.749429
      2    -35.749429
      3    -35.716569
      4    -35.716569
      5    -35.407116
      6    -35.407116
      7    -35.193569
      8    -35.193569
      9    -32.957900
     10    -32.957900
     11    -32.949030
     12    -32.949030
     13    -32.463985
     14    -32.463985
     15    -32.146291
     16    -32.146291
     17    -29.249053
     18    -29.249053
     19    -29.233525
     20    -29.233525
     21    -25.485553
     22    -25.485553
     23    -25.414251
     24    -25.414251
     25    -24.910374
     26    -24.910374
     27    -24.885861
     28    -24.885861
     29    -23.595225
     30    -23.595225
     31    -23.541393
     32    -23.541393
     33    -19.901271
     34    -19.901271
     35    -19.710502
     36    -19.710502
     37    -18.725256
     38    -18.725256
     39    -18.697221
     40    -18.697221
     41    -17.746521
     42    -17.746521
     43    -17.544418
     44    -17.544418
     45    -17.307974
     46    -17.307974
     47    -17.270403
     48    -17.270403
     49    -16.203558
     50    -16.203558
     51    -15.955366
     52    -15.955366
     53    -15.923268
     54    -15.923268
     55    -15.911220
     56    -15.911220
     57    -15.862056
     58    -15.862056
     59    -15.823532
     60    -15.823532
     61    -15.800722
     62    -15.800722
     63    -15.767480
     64    -15.767480
     65    -15.724143
     66    -15.724143
     67    -15.700832
     68    -15.700832
     69    -15.664816
     70    -15.664816
     71    -15.433311
     72    -15.433311
     73    -14.948530
     74    -14.948530
     75    -14.926688
     76    -14.926688
     77    -14.820256
     78    -14.820256
     79    -14.786935
     80    -14.786935
     81    -14.735626
     82    -14.735626
     83    -14.724378
     84    -14.724378
     85    -14.696118
     86    -14.696118
     87    -14.611418
     88    -14.611418
     89    -14.468824
     90    -14.468824
     91    -14.388921
     92    -14.388921
     93    -14.379601
     94    -14.379601
     95    -14.374040
     96    -14.374040
     97    -14.062116
     98    -14.062116
     99    -13.992834
    100    -13.992834
    101    -13.906787
    102    -13.906787
    103    -13.889538
    104    -13.889538
    105    -13.552388
    106    -13.552388
    107    -13.540805
    108    -13.540805
    109    -13.489179
    110    -13.489179
    111    -13.446796
    112    -13.446796
    113    -13.424615
    114    -13.424615
    115    -13.375978
    116    -13.375978
    117    -13.325995
    118    -13.325995
    119    -13.303452
    120    -13.303452
    121    -12.920266
    122    -12.920266
    123    -12.817174
    124    -12.817174
    125    -12.626602
    126    -12.626602
    127    -12.605193
    128    -12.605193
    129    -12.544097
    130    -12.544097
    131    -12.517361
    132    -12.517361
    133    -12.183304
    134    -12.183304
    135    -12.153681
    136    -12.153681
    137     -9.483045
    138     -9.483045
    139     -9.362599
    140     -9.362599
    141     -8.347637
    142     -8.347637
    143     -8.322176
    144     -8.322176
    145     -7.989460
    146     -7.989460
    147     -7.969830
    148     -7.969830
    149     -6.984905
    150     -6.984905
    151     -6.970080
    152     -6.970080
    153     -3.934455
    154     -3.934455
    155     -3.897378
    156     -3.897378
    157      0.301147
    158      0.301147
    159      0.339668
    160      0.339668
    161      1.844681
    162      1.844681
    163      2.716854
    164      2.716854
    165      3.758285
    166      3.758285
    167      3.952289
    168      3.952289
    169      4.173185
    170      4.173185
    171      4.548341
    172      4.548341
    173      5.170798
    174      5.170798
    175      5.295690
    176      5.295690
    177      5.848945
    178      5.848945
    179      6.013284
    180      6.013284
    181      7.927802
    182      7.927802
    183      8.175606
    184      8.175606
    185      9.514682
    186      9.514682
    187      9.725248
    188      9.725248
    189     11.071703
    190     11.071703
    191     11.224869
    192     11.224869
    193     12.833201
    194     12.833201
    195     12.970205
    196     12.970205
    197     14.764219
    198     14.764219
    199     15.028356
    200     15.028356
    201     15.701382
    202     15.701382
    203     15.740478
    204     15.740478
    205     19.539653
    206     19.539653
    207     20.216211
    208     20.216211
    209     24.561073
    210     24.561073
    211     24.681898
    212     24.681898
    213     29.183564
    214     29.183564
    215     29.431022
    216     29.431022
    217     31.000747
    218     31.000747
    219     31.158097
    220     31.158097
    221     32.227667
    222     32.227667
    223     32.473877
    224     32.473877
    225     40.043784
    226     40.043784
    227     40.877827
    228     40.877827
    229     45.693320
    230     45.693320
    231     45.803810
    232     45.803810
    233     47.790884
    234     47.790884
    235     47.876405
    236     47.876405
    237     68.848494
    238     68.848494
    239     68.896312
    240     68.896312


  Final Mulliken charges from Extended Huckel Theory :

--------------------------------------------------------------------------------
    Atom no.            Atomic No.             Charge
--------------------------------------------------------------------------------
         1                   6                -0.0528070
         2                   6                 0.5747429
         3                   6                -0.3452884
         4                   6                -0.2329954
         5                   6                -0.3246666
         6                   6                -0.2386010
         7                   6                 1.3312861
         8                   6                 1.3394300
         9                   6                -0.8918530
        10                   8                -0.9423032
        11                   8                -1.1757310
        12                   8                -0.7527625
        13                   8                -1.1305302
        14                   1                 0.2984249
        15                   1                 0.2857930
        16                   1                 0.2891102
        17                   1                 0.2869100
        18                   1                 0.3507335
        19                   1                 0.3104655
        20                   1                 0.3527771
        21                   1                 0.6678653
--------------------------------------------------------------------------------
  Extended Huckel Theory Energy = -5020.449962 eV
--------------------------------------------------------------------------------

  Peak dynamic memory used =       2.09 MB 


  Timing analysis for GULP :

--------------------------------------------------------------------------------
  Task / Subroutine                                          Time (Seconds)
--------------------------------------------------------------------------------
  Calculation of reciprocal space energy using symmetry           0.0002
  Calculation of real space energy using symmetry                 0.0278
  Calculation of molecules and connectivity                       0.0008
  Extended Huckel Theory charge calculation                       0.5760
  Symmetry generation of equivalent positions                     0.0004
--------------------------------------------------------------------------------
  Total CPU time                                                  0.6078
--------------------------------------------------------------------------------


  Job Finished at 10:13.44 23rd August     2023                               

