********************************************************************************
*                       GENERAL UTILITY LATTICE PROGRAM                        *
*                                 Julian Gale                                  *
*                       Curtin Institute for Computation                       *
*                    School of Molecular and Life Sciences                     *
*                    Curtin University, Western Australia                      *
********************************************************************************
* Version = 6.2.0 * Last modified =   4th October 2023                         *
********************************************************************************
*  optimise     - perform optimisation run                                     *
*  conp         - constant pressure calculation                                *
*  property     - calculate properties for final geometry                      *
*  phonon       - calculate phonons for final geometry                         *
*  dcharge      - output first derivatives of charge distribution              *
********************************************************************************

  Job Started  at 11:08.27  4th October    2023                               

  Number of CPUs =     1


  Total number of configurations input =      1

********************************************************************************
*  Input for Configuration =   1                                               *
********************************************************************************

  Formula = Si3O6                                                       

  Number of irreducible atoms/shells =       9


  Total number atoms/shells =       9

  Dimensionality = 3               :  Bulk   



  Cartesian lattice vectors (Angstroms) :

        4.914850    0.000000    0.000000
       -2.457425    4.256385    0.000000
        0.000000    0.000000    5.406290

  Cell parameters (Angstroms/Degrees):

  a =       4.9149    alpha =  90.0000
  b =       4.9149    beta  =  90.0000
  c =       5.4063    gamma = 120.0000

  Initial cell volume =         113.096849 Angs**3

  Temperature of configuration =   0.00     K 

  Pressure of configuration =         0.000 GPa 

  Fractional coordinates of asymmetric unit :

--------------------------------------------------------------------------------
   No.  Atomic       x           y          z         Charge      Occupancy
        Label      (Frac)      (Frac)     (Frac)        (e)         (Frac)  
--------------------------------------------------------------------------------
      1 Si    c    0.550806    0.982511    0.286900     0.00000    1.000000    
      2 Si    c    0.050806 *  0.482511 *  0.620233 *   0.00000    1.000000    
      3 Si    c    0.550806 *  0.482511 *  0.953567 *   0.00000    1.000000    
      4 O     c    0.481394 *  0.197806 *  0.120233 *   0.00000    1.000000    
      5 O     c    0.835511 *  0.197806 *  0.453567 *   0.00000    1.000000    
      6 O     c    0.835511 *  0.551922 *  0.786900 *   0.00000    1.000000    
      7 O     c    0.266100 *  0.767217 *  0.453567 *   0.00000    1.000000    
      8 O     c    0.620217 *  0.767217 *  0.120233 *   0.00000    1.000000    
      9 O     c    0.266100 *  0.413100 *  0.786900 *   0.00000    1.000000    
--------------------------------------------------------------------------------


  Initial Cartesian coordinates :

--------------------------------------------------------------------------------
   No.  Atomic        x           y           z          Charge   Occupancy
        Label       (Angs)      (Angs)      (Angs)        (e)       (Frac)  
--------------------------------------------------------------------------------
      1 Si    c     0.292679    4.181946    1.551065    0.000000    1.000000
      2 Si    c    -0.936033    2.053753    3.353161    0.000000    1.000000
      3 Si    c     1.521392    2.053753    5.155258    0.000000    1.000000
      4 O     c     1.879889    0.841937    0.650016    0.000000    1.000000
      5 O     c     3.620320    0.841937    2.452113    0.000000    1.000000
      6 O     c     2.750104    2.349194    4.254210    0.000000    1.000000
      7 O     c    -0.577536    3.265570    2.452113    0.000000    1.000000
      8 O     c     1.162895    3.265570    0.650016    0.000000    1.000000
      9 O     c     0.292679    1.758313    4.254210    0.000000    1.000000
--------------------------------------------------------------------------------


  Brillouin zone sampling points :

--------------------------------------------------------------------------------
  Point number          x          y          z            Weight
--------------------------------------------------------------------------------
        1           0.000000   0.000000   0.000000     1.00000000
--------------------------------------------------------------------------------


********************************************************************************
*  General input information                                                   *
********************************************************************************

  Species output for all configurations : 

--------------------------------------------------------------------------------
  Species    Type    Atomic    Atomic    Charge       Radii (Angs)     Library
                     Number     Mass       (e)     Cova   Ionic  VDW   Symbol
--------------------------------------------------------------------------------
    Si       Core       14      28.09   0.000000   1.200  0.000  2.100          
    O        Core        8      16.00   0.000000   0.730  0.000  1.360          
--------------------------------------------------------------------------------


  Lattice summation method               =    Ewald          (3-D)
                                         =    Parry          (2-D)
                                         =    Saunders et al (1-D)
  Accuracy factor for lattice sums       =   12.000


  Analytic derivatives to be used

  Time limit = Infinity

  Maximum range for interatomic potentials =    100000.000000 Angstroms

  ReaxFF forcefield to be used

  ReaxFF Coulomb cutoff =  10.0000 Ang
  ReaxFF VDW     cutoff =  10.0000 Ang
  ReaxFF H-bond  cutoff =   7.5000 Ang

  ReaxFF pairwise bond order       threshold = 0.00000100000000
  ReaxFF angle/torsion bond order  threshold = 0.00100000000000
  ReaxFF bond order double product threshold = 0.00000100000000
  ReaxFF bond order triple product threshold = 0.00000000100000
  ReaxFF hydrogen-bond bond order  threshold = 0.01000000000000


********************************************************************************
*  Output for configuration   1                                                *
********************************************************************************


  Components of energy : 

--------------------------------------------------------------------------------
  Interatomic potentials     =           0.00000000 eV    
  ReaxFF force field         =         -60.36618662 eV    
  Monopole - monopole (real) =           0.00000000 eV    
  Monopole - monopole (recip)=           0.00000000 eV    
  Monopole - monopole (total)=           0.00000000 eV    
--------------------------------------------------------------------------------
  Total lattice energy       =         -60.36618662 eV    
--------------------------------------------------------------------------------
  Total lattice energy       =           -5824.4142 kJ/(mole unit cells)
--------------------------------------------------------------------------------


  Number of variables =       30

  Maximum number of calculations  =          1000
  Maximum Hessian update interval =            10
  Maximum step size               =   1.000000000
  Maximum parameter tolerance     =   0.000010000
  Maximum function  tolerance     =   0.000010000
  Maximum gradient  tolerance     =   0.000010000
  Maximum gradient  component     =   0.000010000

  Symmetry not applied to optimisation

  Cell parameters to be optimised using strains

  Newton-Raphson optimiser to be used

  BFGS hessian update to be used

  Lower half triangular hessian to be used

  Start of bulk optimisation :

  Cycle:      0 Energy:       -60.366187  Gnorm:      0.152540  CPU:    0.062
  ** Hessian calculated **
  Cycle:      1 Energy:       -60.438744  Gnorm:      0.011192  CPU:    0.065
  Cycle:      2 Energy:       -60.440865  Gnorm:      0.003451  CPU:    0.067
  Cycle:      3 Energy:       -60.440891  Gnorm:      0.000303  CPU:    0.069
  Cycle:      4 Energy:       -60.440891  Gnorm:      0.000077  CPU:    0.071
  Cycle:      5 Energy:       -60.440891  Gnorm:      0.000031  CPU:    0.073
  Cycle:      6 Energy:       -60.440891  Gnorm:      0.000009  CPU:    0.075
  ** Hessian calculated **


  **** Optimisation achieved ****


  Final energy =     -60.44089074 eV      
  Final Gnorm  =       0.00000005

  Components of energy : 

--------------------------------------------------------------------------------
  Interatomic potentials     =           0.00000000 eV    
  ReaxFF force field         =         -60.44089074 eV    
  Monopole - monopole (real) =           0.00000000 eV    
  Monopole - monopole (recip)=           0.00000000 eV    
  Monopole - monopole (total)=           0.00000000 eV    
--------------------------------------------------------------------------------
  Total lattice energy       =         -60.44089074 eV    
--------------------------------------------------------------------------------
  Total lattice energy       =           -5831.6220 kJ/(mole unit cells)
--------------------------------------------------------------------------------

  Final fractional coordinates of atoms :

--------------------------------------------------------------------------------
   No.  Atomic        x           y          z          Radius
        Label       (Frac)      (Frac)     (Frac)       (Angs) 
--------------------------------------------------------------------------------
     1  Si    c     0.550806    0.982511    0.286900    0.000000
     2  Si    c     0.050806    0.482511    0.620233    0.000000
     3  Si    c     0.550806    0.482511    0.953567    0.000000
     4  O     c     0.491903    0.203060    0.120233    0.000000
     5  O     c     0.830257    0.203060    0.453567    0.000000
     6  O     c     0.830257    0.541414    0.786900    0.000000
     7  O     c     0.271354    0.761963    0.453567    0.000000
     8  O     c     0.609708    0.761963    0.120233    0.000000
     9  O     c     0.271354    0.423608    0.786900    0.000000
--------------------------------------------------------------------------------

  Final Cartesian coordinates :

--------------------------------------------------------------------------------
   No.  Atomic        x           y           z          Charge   Occupancy
        Label       (Angs)      (Angs)      (Angs)        (e)       (Frac)  
--------------------------------------------------------------------------------
     1  Si    c     0.291381    4.163390    1.626368    1.382846    1.000000
     2  Si    c    -0.931880    2.044641    3.515956    1.382846    1.000000
     3  Si    c     1.514641    2.044641    5.405544    1.382846    1.000000
     4  O     c     1.910111    0.860465    0.681574   -0.691423    1.000000
     5  O     c     3.565693    0.860465    2.571162   -0.691423    1.000000
     6  O     c     2.737902    2.294242    4.460750   -0.691423    1.000000
     7  O     c    -0.536410    3.228816    2.571162   -0.691423    1.000000
     8  O     c     1.119172    3.228816    0.681574   -0.691423    1.000000
     9  O     c     0.291381    1.795040    4.460750   -0.691423    1.000000
--------------------------------------------------------------------------------


  Final Cartesian lattice vectors (Angstroms) :

        4.893043   -0.000000    0.000000
       -2.446521    4.237499    0.000000
       -0.000000   -0.000000    5.668763


  Final cell parameters and derivatives :

--------------------------------------------------------------------------------
       a            4.893043 Angstrom     dE/de1(xx)    -0.000001 eV/strain
       b            4.893043 Angstrom     dE/de2(yy)    -0.000001 eV/strain
       c            5.668763 Angstrom     dE/de3(zz)    -0.000001 eV/strain
       alpha       90.000000 Degrees      dE/de4(yz)     0.000000 eV/strain
       beta        90.000000 Degrees      dE/de5(xz)     0.000000 eV/strain
       gamma      120.000000 Degrees      dE/de6(xy)    -0.000000 eV/strain
--------------------------------------------------------------------------------

  Primitive cell volume =           117.537635 Angs**3

  Density of cell =      2.546845 g/cm**3

  Non-primitive cell volume =           117.537635 Angs**3


  Final internal derivatives :

--------------------------------------------------------------------------------
   No.  Atomic          a             b             c           Radius
        Label          (eV)          (eV)          (eV)        (eV/Angs)
--------------------------------------------------------------------------------
      1 Si    c       0.000000      0.000000      0.000000      0.000000
      2 Si    c       0.000000     -0.000000      0.000000      0.000000
      3 Si    c       0.000000      0.000000     -0.000000      0.000000
      4 O     c       0.000000     -0.000000      0.000000      0.000000
      5 O     c      -0.000000      0.000000      0.000000      0.000000
      6 O     c      -0.000000     -0.000000      0.000000      0.000000
      7 O     c       0.000000     -0.000000     -0.000000      0.000000
      8 O     c      -0.000000     -0.000000     -0.000000      0.000000
      9 O     c      -0.000000      0.000000     -0.000000      0.000000
--------------------------------------------------------------------------------
  Maximum abs         0.000000      0.000000      0.000000      0.000000
--------------------------------------------------------------------------------


  Born effective charge tensors : 

-------------------------------------------------------------------------------
  Atom             x           y             z
-------------------------------------------------------------------------------
    1 Si    x       0.3618     -1.6614     -0.2877
            y       0.0000      2.9446      0.0000
            z       0.0000      0.0000     -0.1174
-------------------------------------------------------------------------------
    2 Si    x       3.0183      1.5337      0.1439
            y      -0.1277      0.2881     -0.2492
            z       0.0000     -0.0000      0.5493
-------------------------------------------------------------------------------
    3 Si    x       0.1406      0.1277      0.1439
            y       0.1277      0.2881      0.2492
            z      -0.0000      0.0000      3.7166
-------------------------------------------------------------------------------
    4 O     x      -0.7738      0.2993     -0.1957
            y       0.5234     -0.9900      0.3390
            z       0.0252      0.8866     -1.4045
-------------------------------------------------------------------------------
    5 O     x      -0.3857     -0.5234     -0.1957
            y      -0.5234     -0.9900     -0.3390
            z       0.0578      0.1769     -0.2247
-------------------------------------------------------------------------------
    6 O     x      -1.2922      0.2241      0.3914
            y       0.0000     -0.4717      0.0000
            z      -0.5731     -0.0628     -0.4450
-------------------------------------------------------------------------------
    7 O     x      -0.6910      0.3149     -0.2184
            y       0.3149     -0.3274     -0.3783
            z      -0.0578     -0.1769     -0.2247
-------------------------------------------------------------------------------
    8 O     x      -0.2325     -0.0502     -0.2184
            y      -0.3149     -0.3274      0.3783
            z      -0.0252     -0.8866     -1.4045
-------------------------------------------------------------------------------
    9 O     x      -0.1456     -0.2647      0.4368
            y      -0.0000     -0.4143      0.0000
            z       0.5731      0.0628     -0.4450
-------------------------------------------------------------------------------




  Elastic Constant Matrix: (Units=GPa)

-------------------------------------------------------------------------------
  Indices      1         2         3         4         5         6    
-------------------------------------------------------------------------------
       1    104.8169   73.0819   95.1363   -0.0000   -0.0000    0.0000
       2     73.0819  104.8169   95.1363    0.0000   -0.0000    0.0000
       3     95.1363   95.1363  119.9156   -0.0000   -0.0000    0.0000
       4     -0.0000    0.0000   -0.0000   19.5897    0.0000    0.0000
       5     -0.0000   -0.0000   -0.0000    0.0000   19.5897   -0.0000
       6      0.0000    0.0000    0.0000    0.0000   -0.0000   15.8675
-------------------------------------------------------------------------------


  Elastic Compliance Matrix: (Units=1/GPa)

-------------------------------------------------------------------------------
  Indices      1         2         3         4         5         6    
-------------------------------------------------------------------------------
       1    0.034312  0.002801 -0.029445  0.000000 -0.000000 -0.000000
       2    0.002801  0.034312 -0.029445 -0.000000 -0.000000  0.000000
       3   -0.029445 -0.029445  0.055060  0.000000  0.000000  0.000000
       4    0.000000 -0.000000  0.000000  0.051047 -0.000000 -0.000000
       5   -0.000000 -0.000000  0.000000 -0.000000  0.051047  0.000000
       6   -0.000000  0.000000  0.000000 -0.000000  0.000000  0.063022
-------------------------------------------------------------------------------

  Mechanical properties :

-------------------------------------------------------------------------------
  Convention :                    Reuss         Voigt         Hill
-------------------------------------------------------------------------------
  Bulk  Modulus (GPa)     =      86.89062      95.13980      91.01521
  Shear Modulus (GPa)     =      12.35139      15.42239      13.88689
-------------------------------------------------------------------------------
  Velocity S-wave (km/s)  =       2.20220       2.46079       2.33508
  Velocity P-wave (km/s)  =       6.37050       6.74017       6.55794
-------------------------------------------------------------------------------
  Compressibility (1/GPa) =    0.01150872
-------------------------------------------------------------------------------
  Stress axis :                     x             y             z
-------------------------------------------------------------------------------
  Youngs Moduli (GPa)     =      29.14398      29.14398      18.16212
-------------------------------------------------------------------------------
  Poissons Ratio (x)      =                    -0.08165       0.53478
  Poissons Ratio (y)      =      -0.08165                     0.53478
  Poissons Ratio (z)      =       0.85813       0.85813
-------------------------------------------------------------------------------


  Piezoelectric Strain Matrix: (Units=C/m**2)

-------------------------------------------------------------------------------
  Indices      1         2         3         4         5         6    
-------------------------------------------------------------------------------
       x    -4.49875   4.19409   4.69967   0.17111   3.35699   2.46919
       y    -2.46168   2.63757  -2.71335   3.35699  -0.17111  -4.34642
       z    -3.76682  -2.71185   3.08415   2.50941  -4.34642  -0.36667
-------------------------------------------------------------------------------


  Piezoelectric Stress Matrix: (Units=10**-11 C/N)

-------------------------------------------------------------------------------
  Indices      1         2         3         4         5         6    
-------------------------------------------------------------------------------
       x   -28.09933  -0.70738  26.77324   0.87345  17.13646  15.56128
       y     0.28167  16.34989 -15.45754  17.13646  -0.87345 -27.39195
       z   -22.76576 -19.44145  36.05746  12.80980 -22.18722  -2.31082
-------------------------------------------------------------------------------


  Static dielectric constant tensor : 

-------------------------------------------------------------------------------
              x         y         z
-------------------------------------------------------------------------------
       x     6.58200  -2.05399  -0.19633
       y    -2.05399   4.21026   0.31088
       z    -0.19633   0.31088   6.61276
--------------------------------------------------------------------------------

  High frequency dielectric constant tensor : 

-------------------------------------------------------------------------------
              x         y         z
-------------------------------------------------------------------------------
       x     5.44668  -1.82829  -0.23374
       y    -1.82829   3.33555   0.22970
       z    -0.23374   0.22970   5.41750
-------------------------------------------------------------------------------

  Static refractive indices : 

-------------------------------------------------------------------------------
    1 =    1.73672      2 =    2.55640      3 =    2.80244
-------------------------------------------------------------------------------

  High frequency refractive indices : 

-------------------------------------------------------------------------------
    1 =    1.50925      2 =    2.30945      3 =    2.56677
-------------------------------------------------------------------------------


  Phonon Calculation : 

  Number of k points for this configuration =        1

--------------------------------------------------------------------------------
  K point      1 =   0.000000  0.000000  0.000000  Weight =    1.000
--------------------------------------------------------------------------------

  Frequencies (cm-1) [NB: Negative implies an imaginary mode]:

   -0.00   -0.00    0.00   68.77  123.15  123.15  194.88  194.88  253.60
  314.80  314.80  317.35  339.89  339.89  348.02  355.12  556.46  556.46
  614.64  614.64  647.08  848.64  872.92  872.92  881.72 1835.62 1835.62


--------------------------------------------------------------------------------
  Phonon properties (per mole of unit cells): Temperature =      0.000 K
--------------------------------------------------------------------------------
  Zero point energy             =        0.832250 eV
--------------------------------------------------------------------------------

  Time to end of optimisation =       0.1925 seconds



  Final charges from ReaxFF :

--------------------------------------------------------------------------------
    Atom no.            Atomic No.             Charge
--------------------------------------------------------------------------------
         1                  14                 1.3828461
         2                  14                 1.3828461
         3                  14                 1.3828461
         4                   8                -0.6914230
         5                   8                -0.6914230
         6                   8                -0.6914230
         7                   8                -0.6914230
         8                   8                -0.6914230
         9                   8                -0.6914230
--------------------------------------------------------------------------------


  First derivatives of ReaxFF charge distribution : 

  Strain :

  Atom            1         2         3         4         5         6
     1     -0.810610 -1.162313 -1.059620  0.000000  0.000000  0.000000
     2     -1.074387 -0.898536 -1.059620 -0.000000 -0.000000 -0.152292
     3     -1.074387 -0.898536 -1.059620 -0.000000  0.000000  0.152292
     4      0.318825  0.667636  0.529810 -0.482535  0.278592 -0.302079
     5      0.318825  0.667636  0.529810  0.482535  0.278592  0.302079
     6      0.842041  0.144420  0.529810  0.000000 -0.557183 -0.000000
     7      0.318825  0.667636  0.529810 -0.482535 -0.278592  0.302079
     8      0.318825  0.667636  0.529810  0.482535 -0.278592 -0.302079
     9      0.842041  0.144420  0.529810  0.000000  0.557183  0.000000

  Coordinate (Angstroms**-1) :

  Atom            1         2         3         4         5         6
     1 x       0.000000 -0.000000 -0.000000  0.308352 -0.308352  0.000000
     1 y      -0.000000 -0.000000  0.000000 -0.331420 -0.331420 -0.016257
     1 z       0.000000  0.117609 -0.117609  0.338173 -0.338173  0.000000
     2 x      -0.000000 -0.000000  0.000000  0.014079  0.132842  0.441194
     2 y      -0.000000  0.000000  0.000000  0.008129  0.432751 -0.101331
     2 z      -0.117609 -0.000000  0.117609  0.000000  0.338173 -0.338173
     3 x      -0.000000  0.000000 -0.000000 -0.132842 -0.014079 -0.441194
     3 y       0.000000 -0.000000 -0.000000  0.432751  0.008129 -0.101331
     3 z       0.117609 -0.117609 -0.000000 -0.338173  0.000000  0.338173
     4 x       0.197821  0.011725 -0.036511 -0.140147  0.009020  0.051800
     4 y      -0.156372  0.006769  0.249504 -0.080914  0.054605 -0.019491
     4 z       0.169256  0.000000 -0.169256  0.000000  0.026283 -0.026283
     5 x      -0.197821  0.036511 -0.011725 -0.009020  0.140147 -0.051800
     5 y      -0.156372  0.249504  0.006769  0.054605 -0.080914 -0.019491
     5 z      -0.169256  0.169256  0.000000 -0.026283  0.000000  0.026283
     6 x       0.000000  0.234332 -0.234332  0.042780 -0.042780  0.000000
     6 y      -0.013539 -0.093132 -0.093132 -0.035114 -0.035114  0.161828
     6 z       0.000000 -0.169256  0.169256  0.026283 -0.026283  0.000000
     7 x       0.197821 -0.036511  0.011725 -0.058970 -0.001970 -0.032767
     7 y       0.156372 -0.249504 -0.006769  0.003790  0.001137  0.049175
     7 z      -0.169256  0.169256 -0.000000 -0.012578  0.000000  0.012578
     8 x      -0.197821 -0.011725  0.036511  0.001970  0.058970  0.032767
     8 y       0.156372 -0.006769 -0.249504  0.001137  0.003790  0.049175
     8 z       0.169256 -0.000000 -0.169256  0.000000  0.012578 -0.012578
     9 x       0.000000 -0.234332  0.234332 -0.026203  0.026203  0.000000
     9 y       0.013539  0.093132  0.093132 -0.052965 -0.052965 -0.002275
     9 z      -0.000000 -0.169256  0.169256  0.012578 -0.012578  0.000000


  Atom            7         8         9
     1 x       0.308352 -0.308352  0.000000
     1 y       0.331420  0.331420  0.016257
     1 z      -0.338173  0.338173 -0.000000
     2 x      -0.132842 -0.014079 -0.441194
     2 y      -0.432751 -0.008129  0.101331
     2 z       0.338173 -0.000000 -0.338173
     3 x       0.014079  0.132842  0.441194
     3 y      -0.008129 -0.432751  0.101331
     3 z      -0.000000 -0.338173  0.338173
     4 x      -0.058970 -0.001970 -0.032767
     4 y      -0.003790 -0.001137 -0.049175
     4 z       0.012578 -0.000000 -0.012578
     5 x       0.001970  0.058970  0.032767
     5 y      -0.001137 -0.003790 -0.049175
     5 z      -0.000000 -0.012578  0.012578
     6 x      -0.026203  0.026203  0.000000
     6 y       0.052965  0.052965  0.002275
     6 z      -0.012578  0.012578 -0.000000
     7 x      -0.140147  0.009020  0.051800
     7 y       0.080914 -0.054605  0.019491
     7 z      -0.000000 -0.026283  0.026283
     8 x      -0.009020  0.140147 -0.051800
     8 y      -0.054605  0.080914  0.019491
     8 z       0.026283 -0.000000 -0.026283
     9 x       0.042780 -0.042780  0.000000
     9 y       0.035114  0.035114 -0.161828
     9 z      -0.026283  0.026283 -0.000000


  First derivatives of charge distribution for electric field : (Angstroms/V)

  Atom         X             Y            Z
     1     -0.252618      0.364840      0.070418
     2     -0.442269      0.036354      0.026848
     3     -0.062967      0.036354      0.488068
     4      0.114820     -0.257314     -0.341673
     5      0.445682     -0.257314     -0.013424
     6      0.280251      0.029220      0.062430
     7     -0.084135      0.048575     -0.013424
     8      0.028869      0.048575     -0.341673
     9     -0.027633     -0.049289      0.062430



  Peak dynamic memory used =       5.82 MB 


  Timing analysis for GULP :

--------------------------------------------------------------------------------
  Task / Subroutine                                          Time (Seconds)
--------------------------------------------------------------------------------
  Calculation of reaxFF energy and derivatives                    0.1761
  Calculation of phonons                                          0.0226
  Electronegativity equalisation                                  0.0061
  Calculation of variable charge 2nd derivatives                  0.0002
--------------------------------------------------------------------------------
  Total CPU time                                                  0.1929
--------------------------------------------------------------------------------


  Dump file written as example85.res


  Job Finished at 11:08.27  4th October    2023                               

